Some description

36162 atoms
1 atom types
0.0 20 xlo xhi
0.0 20 ylo yhi
0.0 40 zlo zhi

Atoms

1 1 0 0 0
2 1 0 0 4.2906
3 1 0 0 8.5812
4 1 0 0 12.8718
5 1 0 0 17.1624
6 1 0 0 21.453000000000003
7 1 0 0 25.7436
8 1 0 0 30.034200000000002
9 1 0 0 34.3248
10 1 0 0 38.6154
11 1 0 0 42.906000000000006
12 1 0 0 47.196600000000004
13 1 0 0 51.4872
14 1 0 0 55.777800000000006
15 1 0 0 60.068400000000004
16 1 0 0 64.35900000000001
17 1 0 0 68.6496
18 1 0 0 72.9402
19 1 0 0 77.2308
20 1 0 0 81.52140000000001
21 1 0 0 85.81200000000001
22 1 0 0 90.10260000000001
23 1 0 0 94.39320000000001
24 1 0 0 98.6838
25 1 0 0 102.9744
26 1 0 0 107.26500000000001
27 1 0 0 111.55560000000001
28 1 0 0 115.84620000000001
29 1 0 0 120.13680000000001
30 1 0 0 124.4274
31 1 0 0 128.71800000000002
32 1 0 0 133.0086
33 1 0 0 137.2992
34 1 0 0 141.58980000000003
35 1 0 0 145.8804
36 1 0 0 150.17100000000002
37 1 0 0 154.4616
38 1 0 0 158.75220000000002
39 1 0 0 163.04280000000003
40 1 0 0 167.3334
41 1 0 0 171.62400000000002
42 1 0 4.2906 0
43 1 0 4.2906 4.2906
44 1 0 4.2906 8.5812
45 1 0 4.2906 12.8718
46 1 0 4.2906 17.1624
47 1 0 4.2906 21.453000000000003
48 1 0 4.2906 25.7436
49 1 0 4.2906 30.034200000000002
50 1 0 4.2906 34.3248
51 1 0 4.2906 38.6154
52 1 0 4.2906 42.906000000000006
53 1 0 4.2906 47.196600000000004
54 1 0 4.2906 51.4872
55 1 0 4.2906 55.777800000000006
56 1 0 4.2906 60.068400000000004
57 1 0 4.2906 64.35900000000001
58 1 0 4.2906 68.6496
59 1 0 4.2906 72.9402
60 1 0 4.2906 77.2308
61 1 0 4.2906 81.52140000000001
62 1 0 4.2906 85.81200000000001
63 1 0 4.2906 90.10260000000001
64 1 0 4.2906 94.39320000000001
65 1 0 4.2906 98.6838
66 1 0 4.2906 102.9744
67 1 0 4.2906 107.26500000000001
68 1 0 4.2906 111.55560000000001
69 1 0 4.2906 115.84620000000001
70 1 0 4.2906 120.13680000000001
71 1 0 4.2906 124.4274
72 1 0 4.2906 128.71800000000002
73 1 0 4.2906 133.0086
74 1 0 4.2906 137.2992
75 1 0 4.2906 141.58980000000003
76 1 0 4.2906 145.8804
77 1 0 4.2906 150.17100000000002
78 1 0 4.2906 154.4616
79 1 0 4.2906 158.75220000000002
80 1 0 4.2906 163.04280000000003
81 1 0 4.2906 167.3334
82 1 0 4.2906 171.62400000000002
83 1 0 8.5812 0
84 1 0 8.5812 4.2906
85 1 0 8.5812 8.5812
86 1 0 8.5812 12.8718
87 1 0 8.5812 17.1624
88 1 0 8.5812 21.453000000000003
89 1 0 8.5812 25.7436
90 1 0 8.5812 30.034200000000002
91 1 0 8.5812 34.3248
92 1 0 8.5812 38.6154
93 1 0 8.5812 42.906000000000006
94 1 0 8.5812 47.196600000000004
95 1 0 8.5812 51.4872
96 1 0 8.5812 55.777800000000006
97 1 0 8.5812 60.068400000000004
98 1 0 8.5812 64.35900000000001
99 1 0 8.5812 68.6496
100 1 0 8.5812 72.9402
101 1 0 8.5812 77.2308
102 1 0 8.5812 81.52140000000001
103 1 0 8.5812 85.81200000000001
104 1 0 8.5812 90.10260000000001
105 1 0 8.5812 94.39320000000001
106 1 0 8.5812 98.6838
107 1 0 8.5812 102.9744
108 1 0 8.5812 107.26500000000001
109 1 0 8.5812 111.55560000000001
110 1 0 8.5812 115.84620000000001
111 1 0 8.5812 120.13680000000001
112 1 0 8.5812 124.4274
113 1 0 8.5812 128.71800000000002
114 1 0 8.5812 133.0086
115 1 0 8.5812 137.2992
116 1 0 8.5812 141.58980000000003
117 1 0 8.5812 145.8804
118 1 0 8.5812 150.17100000000002
119 1 0 8.5812 154.4616
120 1 0 8.5812 158.75220000000002
121 1 0 8.5812 163.04280000000003
122 1 0 8.5812 167.3334
123 1 0 8.5812 171.62400000000002
124 1 0 12.8718 0
125 1 0 12.8718 4.2906
126 1 0 12.8718 8.5812
127 1 0 12.8718 12.8718
128 1 0 12.8718 17.1624
129 1 0 12.8718 21.453000000000003
130 1 0 12.8718 25.7436
131 1 0 12.8718 30.034200000000002
132 1 0 12.8718 34.3248
133 1 0 12.8718 38.6154
134 1 0 12.8718 42.906000000000006
135 1 0 12.8718 47.196600000000004
136 1 0 12.8718 51.4872
137 1 0 12.8718 55.777800000000006
138 1 0 12.8718 60.068400000000004
139 1 0 12.8718 64.35900000000001
140 1 0 12.8718 68.6496
141 1 0 12.8718 72.9402
142 1 0 12.8718 77.2308
143 1 0 12.8718 81.52140000000001
144 1 0 12.8718 85.81200000000001
145 1 0 12.8718 90.10260000000001
146 1 0 12.8718 94.39320000000001
147 1 0 12.8718 98.6838
148 1 0 12.8718 102.9744
149 1 0 12.8718 107.26500000000001
150 1 0 12.8718 111.55560000000001
151 1 0 12.8718 115.84620000000001
152 1 0 12.8718 120.13680000000001
153 1 0 12.8718 124.4274
154 1 0 12.8718 128.71800000000002
155 1 0 12.8718 133.0086
156 1 0 12.8718 137.2992
157 1 0 12.8718 141.58980000000003
158 1 0 12.8718 145.8804
159 1 0 12.8718 150.17100000000002
160 1 0 12.8718 154.4616
161 1 0 12.8718 158.75220000000002
162 1 0 12.8718 163.04280000000003
163 1 0 12.8718 167.3334
164 1 0 12.8718 171.62400000000002
165 1 0 17.1624 0
166 1 0 17.1624 4.2906
167 1 0 17.1624 8.5812
168 1 0 17.1624 12.8718
169 1 0 17.1624 17.1624
170 1 0 17.1624 21.453000000000003
171 1 0 17.1624 25.7436
172 1 0 17.1624 30.034200000000002
173 1 0 17.1624 34.3248
174 1 0 17.1624 38.6154
175 1 0 17.1624 42.906000000000006
176 1 0 17.1624 47.196600000000004
177 1 0 17.1624 51.4872
178 1 0 17.1624 55.777800000000006
179 1 0 17.1624 60.068400000000004
180 1 0 17.1624 64.35900000000001
181 1 0 17.1624 68.6496
182 1 0 17.1624 72.9402
183 1 0 17.1624 77.2308
184 1 0 17.1624 81.52140000000001
185 1 0 17.1624 85.81200000000001
186 1 0 17.1624 90.10260000000001
187 1 0 17.1624 94.39320000000001
188 1 0 17.1624 98.6838
189 1 0 17.1624 102.9744
190 1 0 17.1624 107.26500000000001
191 1 0 17.1624 111.55560000000001
192 1 0 17.1624 115.84620000000001
193 1 0 17.1624 120.13680000000001
194 1 0 17.1624 124.4274
195 1 0 17.1624 128.71800000000002
196 1 0 17.1624 133.0086
197 1 0 17.1624 137.2992
198 1 0 17.1624 141.58980000000003
199 1 0 17.1624 145.8804
200 1 0 17.1624 150.17100000000002
201 1 0 17.1624 154.4616
202 1 0 17.1624 158.75220000000002
203 1 0 17.1624 163.04280000000003
204 1 0 17.1624 167.3334
205 1 0 17.1624 171.62400000000002
206 1 0 21.453000000000003 0
207 1 0 21.453000000000003 4.2906
208 1 0 21.453000000000003 8.5812
209 1 0 21.453000000000003 12.8718
210 1 0 21.453000000000003 17.1624
211 1 0 21.453000000000003 21.453000000000003
212 1 0 21.453000000000003 25.7436
213 1 0 21.453000000000003 30.034200000000002
214 1 0 21.453000000000003 34.3248
215 1 0 21.453000000000003 38.6154
216 1 0 21.453000000000003 42.906000000000006
217 1 0 21.453000000000003 47.196600000000004
218 1 0 21.453000000000003 51.4872
219 1 0 21.453000000000003 55.777800000000006
220 1 0 21.453000000000003 60.068400000000004
221 1 0 21.453000000000003 64.35900000000001
222 1 0 21.453000000000003 68.6496
223 1 0 21.453000000000003 72.9402
224 1 0 21.453000000000003 77.2308
225 1 0 21.453000000000003 81.52140000000001
226 1 0 21.453000000000003 85.81200000000001
227 1 0 21.453000000000003 90.10260000000001
228 1 0 21.453000000000003 94.39320000000001
229 1 0 21.453000000000003 98.6838
230 1 0 21.453000000000003 102.9744
231 1 0 21.453000000000003 107.26500000000001
232 1 0 21.453000000000003 111.55560000000001
233 1 0 21.453000000000003 115.84620000000001
234 1 0 21.453000000000003 120.13680000000001
235 1 0 21.453000000000003 124.4274
236 1 0 21.453000000000003 128.71800000000002
237 1 0 21.453000000000003 133.0086
238 1 0 21.453000000000003 137.2992
239 1 0 21.453000000000003 141.58980000000003
240 1 0 21.453000000000003 145.8804
241 1 0 21.453000000000003 150.17100000000002
242 1 0 21.453000000000003 154.4616
243 1 0 21.453000000000003 158.75220000000002
244 1 0 21.453000000000003 163.04280000000003
245 1 0 21.453000000000003 167.3334
246 1 0 21.453000000000003 171.62400000000002
247 1 0 25.7436 0
248 1 0 25.7436 4.2906
249 1 0 25.7436 8.5812
250 1 0 25.7436 12.8718
251 1 0 25.7436 17.1624
252 1 0 25.7436 21.453000000000003
253 1 0 25.7436 25.7436
254 1 0 25.7436 30.034200000000002
255 1 0 25.7436 34.3248
256 1 0 25.7436 38.6154
257 1 0 25.7436 42.906000000000006
258 1 0 25.7436 47.196600000000004
259 1 0 25.7436 51.4872
260 1 0 25.7436 55.777800000000006
261 1 0 25.7436 60.068400000000004
262 1 0 25.7436 64.35900000000001
263 1 0 25.7436 68.6496
264 1 0 25.7436 72.9402
265 1 0 25.7436 77.2308
266 1 0 25.7436 81.52140000000001
267 1 0 25.7436 85.81200000000001
268 1 0 25.7436 90.10260000000001
269 1 0 25.7436 94.39320000000001
270 1 0 25.7436 98.6838
271 1 0 25.7436 102.9744
272 1 0 25.7436 107.26500000000001
273 1 0 25.7436 111.55560000000001
274 1 0 25.7436 115.84620000000001
275 1 0 25.7436 120.13680000000001
276 1 0 25.7436 124.4274
277 1 0 25.7436 128.71800000000002
278 1 0 25.7436 133.0086
279 1 0 25.7436 137.2992
280 1 0 25.7436 141.58980000000003
281 1 0 25.7436 145.8804
282 1 0 25.7436 150.17100000000002
283 1 0 25.7436 154.4616
284 1 0 25.7436 158.75220000000002
285 1 0 25.7436 163.04280000000003
286 1 0 25.7436 167.3334
287 1 0 25.7436 171.62400000000002
288 1 0 30.034200000000002 0
289 1 0 30.034200000000002 4.2906
290 1 0 30.034200000000002 8.5812
291 1 0 30.034200000000002 12.8718
292 1 0 30.034200000000002 17.1624
293 1 0 30.034200000000002 21.453000000000003
294 1 0 30.034200000000002 25.7436
295 1 0 30.034200000000002 30.034200000000002
296 1 0 30.034200000000002 34.3248
297 1 0 30.034200000000002 38.6154
298 1 0 30.034200000000002 42.906000000000006
299 1 0 30.034200000000002 47.196600000000004
300 1 0 30.034200000000002 51.4872
301 1 0 30.034200000000002 55.777800000000006
302 1 0 30.034200000000002 60.068400000000004
303 1 0 30.034200000000002 64.35900000000001
304 1 0 30.034200000000002 68.6496
305 1 0 30.034200000000002 72.9402
306 1 0 30.034200000000002 77.2308
307 1 0 30.034200000000002 81.52140000000001
308 1 0 30.034200000000002 85.81200000000001
309 1 0 30.034200000000002 90.10260000000001
310 1 0 30.034200000000002 94.39320000000001
311 1 0 30.034200000000002 98.6838
312 1 0 30.034200000000002 102.9744
313 1 0 30.034200000000002 107.26500000000001
314 1 0 30.034200000000002 111.55560000000001
315 1 0 30.034200000000002 115.84620000000001
316 1 0 30.034200000000002 120.13680000000001
317 1 0 30.034200000000002 124.4274
318 1 0 30.034200000000002 128.71800000000002
319 1 0 30.034200000000002 133.0086
320 1 0 30.034200000000002 137.2992
321 1 0 30.034200000000002 141.58980000000003
322 1 0 30.034200000000002 145.8804
323 1 0 30.034200000000002 150.17100000000002
324 1 0 30.034200000000002 154.4616
325 1 0 30.034200000000002 158.75220000000002
326 1 0 30.034200000000002 163.04280000000003
327 1 0 30.034200000000002 167.3334
328 1 0 30.034200000000002 171.62400000000002
329 1 0 34.3248 0
330 1 0 34.3248 4.2906
331 1 0 34.3248 8.5812
332 1 0 34.3248 12.8718
333 1 0 34.3248 17.1624
334 1 0 34.3248 21.453000000000003
335 1 0 34.3248 25.7436
336 1 0 34.3248 30.034200000000002
337 1 0 34.3248 34.3248
338 1 0 34.3248 38.6154
339 1 0 34.3248 42.906000000000006
340 1 0 34.3248 47.196600000000004
341 1 0 34.3248 51.4872
342 1 0 34.3248 55.777800000000006
343 1 0 34.3248 60.068400000000004
344 1 0 34.3248 64.35900000000001
345 1 0 34.3248 68.6496
346 1 0 34.3248 72.9402
347 1 0 34.3248 77.2308
348 1 0 34.3248 81.52140000000001
349 1 0 34.3248 85.81200000000001
350 1 0 34.3248 90.10260000000001
351 1 0 34.3248 94.39320000000001
352 1 0 34.3248 98.6838
353 1 0 34.3248 102.9744
354 1 0 34.3248 107.26500000000001
355 1 0 34.3248 111.55560000000001
356 1 0 34.3248 115.84620000000001
357 1 0 34.3248 120.13680000000001
358 1 0 34.3248 124.4274
359 1 0 34.3248 128.71800000000002
360 1 0 34.3248 133.0086
361 1 0 34.3248 137.2992
362 1 0 34.3248 141.58980000000003
363 1 0 34.3248 145.8804
364 1 0 34.3248 150.17100000000002
365 1 0 34.3248 154.4616
366 1 0 34.3248 158.75220000000002
367 1 0 34.3248 163.04280000000003
368 1 0 34.3248 167.3334
369 1 0 34.3248 171.62400000000002
370 1 0 38.6154 0
371 1 0 38.6154 4.2906
372 1 0 38.6154 8.5812
373 1 0 38.6154 12.8718
374 1 0 38.6154 17.1624
375 1 0 38.6154 21.453000000000003
376 1 0 38.6154 25.7436
377 1 0 38.6154 30.034200000000002
378 1 0 38.6154 34.3248
379 1 0 38.6154 38.6154
380 1 0 38.6154 42.906000000000006
381 1 0 38.6154 47.196600000000004
382 1 0 38.6154 51.4872
383 1 0 38.6154 55.777800000000006
384 1 0 38.6154 60.068400000000004
385 1 0 38.6154 64.35900000000001
386 1 0 38.6154 68.6496
387 1 0 38.6154 72.9402
388 1 0 38.6154 77.2308
389 1 0 38.6154 81.52140000000001
390 1 0 38.6154 85.81200000000001
391 1 0 38.6154 90.10260000000001
392 1 0 38.6154 94.39320000000001
393 1 0 38.6154 98.6838
394 1 0 38.6154 102.9744
395 1 0 38.6154 107.26500000000001
396 1 0 38.6154 111.55560000000001
397 1 0 38.6154 115.84620000000001
398 1 0 38.6154 120.13680000000001
399 1 0 38.6154 124.4274
400 1 0 38.6154 128.71800000000002
401 1 0 38.6154 133.0086
402 1 0 38.6154 137.2992
403 1 0 38.6154 141.58980000000003
404 1 0 38.6154 145.8804
405 1 0 38.6154 150.17100000000002
406 1 0 38.6154 154.4616
407 1 0 38.6154 158.75220000000002
408 1 0 38.6154 163.04280000000003
409 1 0 38.6154 167.3334
410 1 0 38.6154 171.62400000000002
411 1 0 42.906000000000006 0
412 1 0 42.906000000000006 4.2906
413 1 0 42.906000000000006 8.5812
414 1 0 42.906000000000006 12.8718
415 1 0 42.906000000000006 17.1624
416 1 0 42.906000000000006 21.453000000000003
417 1 0 42.906000000000006 25.7436
418 1 0 42.906000000000006 30.034200000000002
419 1 0 42.906000000000006 34.3248
420 1 0 42.906000000000006 38.6154
421 1 0 42.906000000000006 42.906000000000006
422 1 0 42.906000000000006 47.196600000000004
423 1 0 42.906000000000006 51.4872
424 1 0 42.906000000000006 55.777800000000006
425 1 0 42.906000000000006 60.068400000000004
426 1 0 42.906000000000006 64.35900000000001
427 1 0 42.906000000000006 68.6496
428 1 0 42.906000000000006 72.9402
429 1 0 42.906000000000006 77.2308
430 1 0 42.906000000000006 81.52140000000001
431 1 0 42.906000000000006 85.81200000000001
432 1 0 42.906000000000006 90.10260000000001
433 1 0 42.906000000000006 94.39320000000001
434 1 0 42.906000000000006 98.6838
435 1 0 42.906000000000006 102.9744
436 1 0 42.906000000000006 107.26500000000001
437 1 0 42.906000000000006 111.55560000000001
438 1 0 42.906000000000006 115.84620000000001
439 1 0 42.906000000000006 120.13680000000001
440 1 0 42.906000000000006 124.4274
441 1 0 42.906000000000006 128.71800000000002
442 1 0 42.906000000000006 133.0086
443 1 0 42.906000000000006 137.2992
444 1 0 42.906000000000006 141.58980000000003
445 1 0 42.906000000000006 145.8804
446 1 0 42.906000000000006 150.17100000000002
447 1 0 42.906000000000006 154.4616
448 1 0 42.906000000000006 158.75220000000002
449 1 0 42.906000000000006 163.04280000000003
450 1 0 42.906000000000006 167.3334
451 1 0 42.906000000000006 171.62400000000002
452 1 0 47.196600000000004 0
453 1 0 47.196600000000004 4.2906
454 1 0 47.196600000000004 8.5812
455 1 0 47.196600000000004 12.8718
456 1 0 47.196600000000004 17.1624
457 1 0 47.196600000000004 21.453000000000003
458 1 0 47.196600000000004 25.7436
459 1 0 47.196600000000004 30.034200000000002
460 1 0 47.196600000000004 34.3248
461 1 0 47.196600000000004 38.6154
462 1 0 47.196600000000004 42.906000000000006
463 1 0 47.196600000000004 47.196600000000004
464 1 0 47.196600000000004 51.4872
465 1 0 47.196600000000004 55.777800000000006
466 1 0 47.196600000000004 60.068400000000004
467 1 0 47.196600000000004 64.35900000000001
468 1 0 47.196600000000004 68.6496
469 1 0 47.196600000000004 72.9402
470 1 0 47.196600000000004 77.2308
471 1 0 47.196600000000004 81.52140000000001
472 1 0 47.196600000000004 85.81200000000001
473 1 0 47.196600000000004 90.10260000000001
474 1 0 47.196600000000004 94.39320000000001
475 1 0 47.196600000000004 98.6838
476 1 0 47.196600000000004 102.9744
477 1 0 47.196600000000004 107.26500000000001
478 1 0 47.196600000000004 111.55560000000001
479 1 0 47.196600000000004 115.84620000000001
480 1 0 47.196600000000004 120.13680000000001
481 1 0 47.196600000000004 124.4274
482 1 0 47.196600000000004 128.71800000000002
483 1 0 47.196600000000004 133.0086
484 1 0 47.196600000000004 137.2992
485 1 0 47.196600000000004 141.58980000000003
486 1 0 47.196600000000004 145.8804
487 1 0 47.196600000000004 150.17100000000002
488 1 0 47.196600000000004 154.4616
489 1 0 47.196600000000004 158.75220000000002
490 1 0 47.196600000000004 163.04280000000003
491 1 0 47.196600000000004 167.3334
492 1 0 47.196600000000004 171.62400000000002
493 1 0 51.4872 0
494 1 0 51.4872 4.2906
495 1 0 51.4872 8.5812
496 1 0 51.4872 12.8718
497 1 0 51.4872 17.1624
498 1 0 51.4872 21.453000000000003
499 1 0 51.4872 25.7436
500 1 0 51.4872 30.034200000000002
501 1 0 51.4872 34.3248
502 1 0 51.4872 38.6154
503 1 0 51.4872 42.906000000000006
504 1 0 51.4872 47.196600000000004
505 1 0 51.4872 51.4872
506 1 0 51.4872 55.777800000000006
507 1 0 51.4872 60.068400000000004
508 1 0 51.4872 64.35900000000001
509 1 0 51.4872 68.6496
510 1 0 51.4872 72.9402
511 1 0 51.4872 77.2308
512 1 0 51.4872 81.52140000000001
513 1 0 51.4872 85.81200000000001
514 1 0 51.4872 90.10260000000001
515 1 0 51.4872 94.39320000000001
516 1 0 51.4872 98.6838
517 1 0 51.4872 102.9744
518 1 0 51.4872 107.26500000000001
519 1 0 51.4872 111.55560000000001
520 1 0 51.4872 115.84620000000001
521 1 0 51.4872 120.13680000000001
522 1 0 51.4872 124.4274
523 1 0 51.4872 128.71800000000002
524 1 0 51.4872 133.0086
525 1 0 51.4872 137.2992
526 1 0 51.4872 141.58980000000003
527 1 0 51.4872 145.8804
528 1 0 51.4872 150.17100000000002
529 1 0 51.4872 154.4616
530 1 0 51.4872 158.75220000000002
531 1 0 51.4872 163.04280000000003
532 1 0 51.4872 167.3334
533 1 0 51.4872 171.62400000000002
534 1 0 55.777800000000006 0
535 1 0 55.777800000000006 4.2906
536 1 0 55.777800000000006 8.5812
537 1 0 55.777800000000006 12.8718
538 1 0 55.777800000000006 17.1624
539 1 0 55.777800000000006 21.453000000000003
540 1 0 55.777800000000006 25.7436
541 1 0 55.777800000000006 30.034200000000002
542 1 0 55.777800000000006 34.3248
543 1 0 55.777800000000006 38.6154
544 1 0 55.777800000000006 42.906000000000006
545 1 0 55.777800000000006 47.196600000000004
546 1 0 55.777800000000006 51.4872
547 1 0 55.777800000000006 55.777800000000006
548 1 0 55.777800000000006 60.068400000000004
549 1 0 55.777800000000006 64.35900000000001
550 1 0 55.777800000000006 68.6496
551 1 0 55.777800000000006 72.9402
552 1 0 55.777800000000006 77.2308
553 1 0 55.777800000000006 81.52140000000001
554 1 0 55.777800000000006 85.81200000000001
555 1 0 55.777800000000006 90.10260000000001
556 1 0 55.777800000000006 94.39320000000001
557 1 0 55.777800000000006 98.6838
558 1 0 55.777800000000006 102.9744
559 1 0 55.777800000000006 107.26500000000001
560 1 0 55.777800000000006 111.55560000000001
561 1 0 55.777800000000006 115.84620000000001
562 1 0 55.777800000000006 120.13680000000001
563 1 0 55.777800000000006 124.4274
564 1 0 55.777800000000006 128.71800000000002
565 1 0 55.777800000000006 133.0086
566 1 0 55.777800000000006 137.2992
567 1 0 55.777800000000006 141.58980000000003
568 1 0 55.777800000000006 145.8804
569 1 0 55.777800000000006 150.17100000000002
570 1 0 55.777800000000006 154.4616
571 1 0 55.777800000000006 158.75220000000002
572 1 0 55.777800000000006 163.04280000000003
573 1 0 55.777800000000006 167.3334
574 1 0 55.777800000000006 171.62400000000002
575 1 0 60.068400000000004 0
576 1 0 60.068400000000004 4.2906
577 1 0 60.068400000000004 8.5812
578 1 0 60.068400000000004 12.8718
579 1 0 60.068400000000004 17.1624
580 1 0 60.068400000000004 21.453000000000003
581 1 0 60.068400000000004 25.7436
582 1 0 60.068400000000004 30.034200000000002
583 1 0 60.068400000000004 34.3248
584 1 0 60.068400000000004 38.6154
585 1 0 60.068400000000004 42.906000000000006
586 1 0 60.068400000000004 47.196600000000004
587 1 0 60.068400000000004 51.4872
588 1 0 60.068400000000004 55.777800000000006
589 1 0 60.068400000000004 60.068400000000004
590 1 0 60.068400000000004 64.35900000000001
591 1 0 60.068400000000004 68.6496
592 1 0 60.068400000000004 72.9402
593 1 0 60.068400000000004 77.2308
594 1 0 60.068400000000004 81.52140000000001
595 1 0 60.068400000000004 85.81200000000001
596 1 0 60.068400000000004 90.10260000000001
597 1 0 60.068400000000004 94.39320000000001
598 1 0 60.068400000000004 98.6838
599 1 0 60.068400000000004 102.9744
600 1 0 60.068400000000004 107.26500000000001
601 1 0 60.068400000000004 111.55560000000001
602 1 0 60.068400000000004 115.84620000000001
603 1 0 60.068400000000004 120.13680000000001
604 1 0 60.068400000000004 124.4274
605 1 0 60.068400000000004 128.71800000000002
606 1 0 60.068400000000004 133.0086
607 1 0 60.068400000000004 137.2992
608 1 0 60.068400000000004 141.58980000000003
609 1 0 60.068400000000004 145.8804
610 1 0 60.068400000000004 150.17100000000002
611 1 0 60.068400000000004 154.4616
612 1 0 60.068400000000004 158.75220000000002
613 1 0 60.068400000000004 163.04280000000003
614 1 0 60.068400000000004 167.3334
615 1 0 60.068400000000004 171.62400000000002
616 1 0 64.35900000000001 0
617 1 0 64.35900000000001 4.2906
618 1 0 64.35900000000001 8.5812
619 1 0 64.35900000000001 12.8718
620 1 0 64.35900000000001 17.1624
621 1 0 64.35900000000001 21.453000000000003
622 1 0 64.35900000000001 25.7436
623 1 0 64.35900000000001 30.034200000000002
624 1 0 64.35900000000001 34.3248
625 1 0 64.35900000000001 38.6154
626 1 0 64.35900000000001 42.906000000000006
627 1 0 64.35900000000001 47.196600000000004
628 1 0 64.35900000000001 51.4872
629 1 0 64.35900000000001 55.777800000000006
630 1 0 64.35900000000001 60.068400000000004
631 1 0 64.35900000000001 64.35900000000001
632 1 0 64.35900000000001 68.6496
633 1 0 64.35900000000001 72.9402
634 1 0 64.35900000000001 77.2308
635 1 0 64.35900000000001 81.52140000000001
636 1 0 64.35900000000001 85.81200000000001
637 1 0 64.35900000000001 90.10260000000001
638 1 0 64.35900000000001 94.39320000000001
639 1 0 64.35900000000001 98.6838
640 1 0 64.35900000000001 102.9744
641 1 0 64.35900000000001 107.26500000000001
642 1 0 64.35900000000001 111.55560000000001
643 1 0 64.35900000000001 115.84620000000001
644 1 0 64.35900000000001 120.13680000000001
645 1 0 64.35900000000001 124.4274
646 1 0 64.35900000000001 128.71800000000002
647 1 0 64.35900000000001 133.0086
648 1 0 64.35900000000001 137.2992
649 1 0 64.35900000000001 141.58980000000003
650 1 0 64.35900000000001 145.8804
651 1 0 64.35900000000001 150.17100000000002
652 1 0 64.35900000000001 154.4616
653 1 0 64.35900000000001 158.75220000000002
654 1 0 64.35900000000001 163.04280000000003
655 1 0 64.35900000000001 167.3334
656 1 0 64.35900000000001 171.62400000000002
657 1 0 68.6496 0
658 1 0 68.6496 4.2906
659 1 0 68.6496 8.5812
660 1 0 68.6496 12.8718
661 1 0 68.6496 17.1624
662 1 0 68.6496 21.453000000000003
663 1 0 68.6496 25.7436
664 1 0 68.6496 30.034200000000002
665 1 0 68.6496 34.3248
666 1 0 68.6496 38.6154
667 1 0 68.6496 42.906000000000006
668 1 0 68.6496 47.196600000000004
669 1 0 68.6496 51.4872
670 1 0 68.6496 55.777800000000006
671 1 0 68.6496 60.068400000000004
672 1 0 68.6496 64.35900000000001
673 1 0 68.6496 68.6496
674 1 0 68.6496 72.9402
675 1 0 68.6496 77.2308
676 1 0 68.6496 81.52140000000001
677 1 0 68.6496 85.81200000000001
678 1 0 68.6496 90.10260000000001
679 1 0 68.6496 94.39320000000001
680 1 0 68.6496 98.6838
681 1 0 68.6496 102.9744
682 1 0 68.6496 107.26500000000001
683 1 0 68.6496 111.55560000000001
684 1 0 68.6496 115.84620000000001
685 1 0 68.6496 120.13680000000001
686 1 0 68.6496 124.4274
687 1 0 68.6496 128.71800000000002
688 1 0 68.6496 133.0086
689 1 0 68.6496 137.2992
690 1 0 68.6496 141.58980000000003
691 1 0 68.6496 145.8804
692 1 0 68.6496 150.17100000000002
693 1 0 68.6496 154.4616
694 1 0 68.6496 158.75220000000002
695 1 0 68.6496 163.04280000000003
696 1 0 68.6496 167.3334
697 1 0 68.6496 171.62400000000002
698 1 0 72.9402 0
699 1 0 72.9402 4.2906
700 1 0 72.9402 8.5812
701 1 0 72.9402 12.8718
702 1 0 72.9402 17.1624
703 1 0 72.9402 21.453000000000003
704 1 0 72.9402 25.7436
705 1 0 72.9402 30.034200000000002
706 1 0 72.9402 34.3248
707 1 0 72.9402 38.6154
708 1 0 72.9402 42.906000000000006
709 1 0 72.9402 47.196600000000004
710 1 0 72.9402 51.4872
711 1 0 72.9402 55.777800000000006
712 1 0 72.9402 60.068400000000004
713 1 0 72.9402 64.35900000000001
714 1 0 72.9402 68.6496
715 1 0 72.9402 72.9402
716 1 0 72.9402 77.2308
717 1 0 72.9402 81.52140000000001
718 1 0 72.9402 85.81200000000001
719 1 0 72.9402 90.10260000000001
720 1 0 72.9402 94.39320000000001
721 1 0 72.9402 98.6838
722 1 0 72.9402 102.9744
723 1 0 72.9402 107.26500000000001
724 1 0 72.9402 111.55560000000001
725 1 0 72.9402 115.84620000000001
726 1 0 72.9402 120.13680000000001
727 1 0 72.9402 124.4274
728 1 0 72.9402 128.71800000000002
729 1 0 72.9402 133.0086
730 1 0 72.9402 137.2992
731 1 0 72.9402 141.58980000000003
732 1 0 72.9402 145.8804
733 1 0 72.9402 150.17100000000002
734 1 0 72.9402 154.4616
735 1 0 72.9402 158.75220000000002
736 1 0 72.9402 163.04280000000003
737 1 0 72.9402 167.3334
738 1 0 72.9402 171.62400000000002
739 1 0 77.2308 0
740 1 0 77.2308 4.2906
741 1 0 77.2308 8.5812
742 1 0 77.2308 12.8718
743 1 0 77.2308 17.1624
744 1 0 77.2308 21.453000000000003
745 1 0 77.2308 25.7436
746 1 0 77.2308 30.034200000000002
747 1 0 77.2308 34.3248
748 1 0 77.2308 38.6154
749 1 0 77.2308 42.906000000000006
750 1 0 77.2308 47.196600000000004
751 1 0 77.2308 51.4872
752 1 0 77.2308 55.777800000000006
753 1 0 77.2308 60.068400000000004
754 1 0 77.2308 64.35900000000001
755 1 0 77.2308 68.6496
756 1 0 77.2308 72.9402
757 1 0 77.2308 77.2308
758 1 0 77.2308 81.52140000000001
759 1 0 77.2308 85.81200000000001
760 1 0 77.2308 90.10260000000001
761 1 0 77.2308 94.39320000000001
762 1 0 77.2308 98.6838
763 1 0 77.2308 102.9744
764 1 0 77.2308 107.26500000000001
765 1 0 77.2308 111.55560000000001
766 1 0 77.2308 115.84620000000001
767 1 0 77.2308 120.13680000000001
768 1 0 77.2308 124.4274
769 1 0 77.2308 128.71800000000002
770 1 0 77.2308 133.0086
771 1 0 77.2308 137.2992
772 1 0 77.2308 141.58980000000003
773 1 0 77.2308 145.8804
774 1 0 77.2308 150.17100000000002
775 1 0 77.2308 154.4616
776 1 0 77.2308 158.75220000000002
777 1 0 77.2308 163.04280000000003
778 1 0 77.2308 167.3334
779 1 0 77.2308 171.62400000000002
780 1 0 81.52140000000001 0
781 1 0 81.52140000000001 4.2906
782 1 0 81.52140000000001 8.5812
783 1 0 81.52140000000001 12.8718
784 1 0 81.52140000000001 17.1624
785 1 0 81.52140000000001 21.453000000000003
786 1 0 81.52140000000001 25.7436
787 1 0 81.52140000000001 30.034200000000002
788 1 0 81.52140000000001 34.3248
789 1 0 81.52140000000001 38.6154
790 1 0 81.52140000000001 42.906000000000006
791 1 0 81.52140000000001 47.196600000000004
792 1 0 81.52140000000001 51.4872
793 1 0 81.52140000000001 55.777800000000006
794 1 0 81.52140000000001 60.068400000000004
795 1 0 81.52140000000001 64.35900000000001
796 1 0 81.52140000000001 68.6496
797 1 0 81.52140000000001 72.9402
798 1 0 81.52140000000001 77.2308
799 1 0 81.52140000000001 81.52140000000001
800 1 0 81.52140000000001 85.81200000000001
801 1 0 81.52140000000001 90.10260000000001
802 1 0 81.52140000000001 94.39320000000001
803 1 0 81.52140000000001 98.6838
804 1 0 81.52140000000001 102.9744
805 1 0 81.52140000000001 107.26500000000001
806 1 0 81.52140000000001 111.55560000000001
807 1 0 81.52140000000001 115.84620000000001
808 1 0 81.52140000000001 120.13680000000001
809 1 0 81.52140000000001 124.4274
810 1 0 81.52140000000001 128.71800000000002
811 1 0 81.52140000000001 133.0086
812 1 0 81.52140000000001 137.2992
813 1 0 81.52140000000001 141.58980000000003
814 1 0 81.52140000000001 145.8804
815 1 0 81.52140000000001 150.17100000000002
816 1 0 81.52140000000001 154.4616
817 1 0 81.52140000000001 158.75220000000002
818 1 0 81.52140000000001 163.04280000000003
819 1 0 81.52140000000001 167.3334
820 1 0 81.52140000000001 171.62400000000002
821 1 0 85.81200000000001 0
822 1 0 85.81200000000001 4.2906
823 1 0 85.81200000000001 8.5812
824 1 0 85.81200000000001 12.8718
825 1 0 85.81200000000001 17.1624
826 1 0 85.81200000000001 21.453000000000003
827 1 0 85.81200000000001 25.7436
828 1 0 85.81200000000001 30.034200000000002
829 1 0 85.81200000000001 34.3248
830 1 0 85.81200000000001 38.6154
831 1 0 85.81200000000001 42.906000000000006
832 1 0 85.81200000000001 47.196600000000004
833 1 0 85.81200000000001 51.4872
834 1 0 85.81200000000001 55.777800000000006
835 1 0 85.81200000000001 60.068400000000004
836 1 0 85.81200000000001 64.35900000000001
837 1 0 85.81200000000001 68.6496
838 1 0 85.81200000000001 72.9402
839 1 0 85.81200000000001 77.2308
840 1 0 85.81200000000001 81.52140000000001
841 1 0 85.81200000000001 85.81200000000001
842 1 0 85.81200000000001 90.10260000000001
843 1 0 85.81200000000001 94.39320000000001
844 1 0 85.81200000000001 98.6838
845 1 0 85.81200000000001 102.9744
846 1 0 85.81200000000001 107.26500000000001
847 1 0 85.81200000000001 111.55560000000001
848 1 0 85.81200000000001 115.84620000000001
849 1 0 85.81200000000001 120.13680000000001
850 1 0 85.81200000000001 124.4274
851 1 0 85.81200000000001 128.71800000000002
852 1 0 85.81200000000001 133.0086
853 1 0 85.81200000000001 137.2992
854 1 0 85.81200000000001 141.58980000000003
855 1 0 85.81200000000001 145.8804
856 1 0 85.81200000000001 150.17100000000002
857 1 0 85.81200000000001 154.4616
858 1 0 85.81200000000001 158.75220000000002
859 1 0 85.81200000000001 163.04280000000003
860 1 0 85.81200000000001 167.3334
861 1 0 85.81200000000001 171.62400000000002
862 1 4.2906 0 0
863 1 4.2906 0 4.2906
864 1 4.2906 0 8.5812
865 1 4.2906 0 12.8718
866 1 4.2906 0 17.1624
867 1 4.2906 0 21.453000000000003
868 1 4.2906 0 25.7436
869 1 4.2906 0 30.034200000000002
870 1 4.2906 0 34.3248
871 1 4.2906 0 38.6154
872 1 4.2906 0 42.906000000000006
873 1 4.2906 0 47.196600000000004
874 1 4.2906 0 51.4872
875 1 4.2906 0 55.777800000000006
876 1 4.2906 0 60.068400000000004
877 1 4.2906 0 64.35900000000001
878 1 4.2906 0 68.6496
879 1 4.2906 0 72.9402
880 1 4.2906 0 77.2308
881 1 4.2906 0 81.52140000000001
882 1 4.2906 0 85.81200000000001
883 1 4.2906 0 90.10260000000001
884 1 4.2906 0 94.39320000000001
885 1 4.2906 0 98.6838
886 1 4.2906 0 102.9744
887 1 4.2906 0 107.26500000000001
888 1 4.2906 0 111.55560000000001
889 1 4.2906 0 115.84620000000001
890 1 4.2906 0 120.13680000000001
891 1 4.2906 0 124.4274
892 1 4.2906 0 128.71800000000002
893 1 4.2906 0 133.0086
894 1 4.2906 0 137.2992
895 1 4.2906 0 141.58980000000003
896 1 4.2906 0 145.8804