Some description

18081 atoms
1 atom types
0.0 20 xlo xhi
0.0 20 ylo yhi
0.0 40 zlo zhi

Atoms

1 1 0 0 0
2 1 0 0 3.345
3 1 0 0 6.69
4 1 0 0 10.035
5 1 0 0 13.38
6 1 0 0 16.725
7 1 0 0 20.07
8 1 0 0 23.415000000000003
9 1 0 0 26.76
10 1 0 0 30.105
11 1 0 0 33.45
12 1 0 0 36.795
13 1 0 0 40.14
14 1 0 0 43.485
15 1 0 0 46.830000000000005
16 1 0 0 50.175000000000004
17 1 0 0 53.52
18 1 0 0 56.865
19 1 0 0 60.21
20 1 0 0 63.55500000000001
21 1 0 0 66.9
22 1 0 0 70.245
23 1 0 0 73.59
24 1 0 0 76.935
25 1 0 0 80.28
26 1 0 0 83.625
27 1 0 0 86.97
28 1 0 0 90.31500000000001
29 1 0 0 93.66000000000001
30 1 0 0 97.00500000000001
31 1 0 0 100.35000000000001
32 1 0 0 103.69500000000001
33 1 0 0 107.04
34 1 0 0 110.385
35 1 0 0 113.73
36 1 0 0 117.075
37 1 0 0 120.42
38 1 0 0 123.765
39 1 0 0 127.11000000000001
40 1 0 0 130.455
41 1 0 0 133.8
42 1 0 3.345 0
43 1 0 3.345 3.345
44 1 0 3.345 6.69
45 1 0 3.345 10.035
46 1 0 3.345 13.38
47 1 0 3.345 16.725
48 1 0 3.345 20.07
49 1 0 3.345 23.415000000000003
50 1 0 3.345 26.76
51 1 0 3.345 30.105
52 1 0 3.345 33.45
53 1 0 3.345 36.795
54 1 0 3.345 40.14
55 1 0 3.345 43.485
56 1 0 3.345 46.830000000000005
57 1 0 3.345 50.175000000000004
58 1 0 3.345 53.52
59 1 0 3.345 56.865
60 1 0 3.345 60.21
61 1 0 3.345 63.55500000000001
62 1 0 3.345 66.9
63 1 0 3.345 70.245
64 1 0 3.345 73.59
65 1 0 3.345 76.935
66 1 0 3.345 80.28
67 1 0 3.345 83.625
68 1 0 3.345 86.97
69 1 0 3.345 90.31500000000001
70 1 0 3.345 93.66000000000001
71 1 0 3.345 97.00500000000001
72 1 0 3.345 100.35000000000001
73 1 0 3.345 103.69500000000001
74 1 0 3.345 107.04
75 1 0 3.345 110.385
76 1 0 3.345 113.73
77 1 0 3.345 117.075
78 1 0 3.345 120.42
79 1 0 3.345 123.765
80 1 0 3.345 127.11000000000001
81 1 0 3.345 130.455
82 1 0 3.345 133.8
83 1 0 6.69 0
84 1 0 6.69 3.345
85 1 0 6.69 6.69
86 1 0 6.69 10.035
87 1 0 6.69 13.38
88 1 0 6.69 16.725
89 1 0 6.69 20.07
90 1 0 6.69 23.415000000000003
91 1 0 6.69 26.76
92 1 0 6.69 30.105
93 1 0 6.69 33.45
94 1 0 6.69 36.795
95 1 0 6.69 40.14
96 1 0 6.69 43.485
97 1 0 6.69 46.830000000000005
98 1 0 6.69 50.175000000000004
99 1 0 6.69 53.52
100 1 0 6.69 56.865
101 1 0 6.69 60.21
102 1 0 6.69 63.55500000000001
103 1 0 6.69 66.9
104 1 0 6.69 70.245
105 1 0 6.69 73.59
106 1 0 6.69 76.935
107 1 0 6.69 80.28
108 1 0 6.69 83.625
109 1 0 6.69 86.97
110 1 0 6.69 90.31500000000001
111 1 0 6.69 93.66000000000001
112 1 0 6.69 97.00500000000001
113 1 0 6.69 100.35000000000001
114 1 0 6.69 103.69500000000001
115 1 0 6.69 107.04
116 1 0 6.69 110.385
117 1 0 6.69 113.73
118 1 0 6.69 117.075
119 1 0 6.69 120.42
120 1 0 6.69 123.765
121 1 0 6.69 127.11000000000001
122 1 0 6.69 130.455
123 1 0 6.69 133.8
124 1 0 10.035 0
125 1 0 10.035 3.345
126 1 0 10.035 6.69
127 1 0 10.035 10.035
128 1 0 10.035 13.38
129 1 0 10.035 16.725
130 1 0 10.035 20.07
131 1 0 10.035 23.415000000000003
132 1 0 10.035 26.76
133 1 0 10.035 30.105
134 1 0 10.035 33.45
135 1 0 10.035 36.795
136 1 0 10.035 40.14
137 1 0 10.035 43.485
138 1 0 10.035 46.830000000000005
139 1 0 10.035 50.175000000000004
140 1 0 10.035 53.52
141 1 0 10.035 56.865
142 1 0 10.035 60.21
143 1 0 10.035 63.55500000000001
144 1 0 10.035 66.9
145 1 0 10.035 70.245
146 1 0 10.035 73.59
147 1 0 10.035 76.935
148 1 0 10.035 80.28
149 1 0 10.035 83.625
150 1 0 10.035 86.97
151 1 0 10.035 90.31500000000001
152 1 0 10.035 93.66000000000001
153 1 0 10.035 97.00500000000001
154 1 0 10.035 100.35000000000001
155 1 0 10.035 103.69500000000001
156 1 0 10.035 107.04
157 1 0 10.035 110.385
158 1 0 10.035 113.73
159 1 0 10.035 117.075
160 1 0 10.035 120.42
161 1 0 10.035 123.765
162 1 0 10.035 127.11000000000001
163 1 0 10.035 130.455
164 1 0 10.035 133.8
165 1 0 13.38 0
166 1 0 13.38 3.345
167 1 0 13.38 6.69
168 1 0 13.38 10.035
169 1 0 13.38 13.38
170 1 0 13.38 16.725
171 1 0 13.38 20.07
172 1 0 13.38 23.415000000000003
173 1 0 13.38 26.76
174 1 0 13.38 30.105
175 1 0 13.38 33.45
176 1 0 13.38 36.795
177 1 0 13.38 40.14
178 1 0 13.38 43.485
179 1 0 13.38 46.830000000000005
180 1 0 13.38 50.175000000000004
181 1 0 13.38 53.52
182 1 0 13.38 56.865
183 1 0 13.38 60.21
184 1 0 13.38 63.55500000000001
185 1 0 13.38 66.9
186 1 0 13.38 70.245
187 1 0 13.38 73.59
188 1 0 13.38 76.935
189 1 0 13.38 80.28
190 1 0 13.38 83.625
191 1 0 13.38 86.97
192 1 0 13.38 90.31500000000001
193 1 0 13.38 93.66000000000001
194 1 0 13.38 97.00500000000001
195 1 0 13.38 100.35000000000001
196 1 0 13.38 103.69500000000001
197 1 0 13.38 107.04
198 1 0 13.38 110.385
199 1 0 13.38 113.73
200 1 0 13.38 117.075
201 1 0 13.38 120.42
202 1 0 13.38 123.765
203 1 0 13.38 127.11000000000001
204 1 0 13.38 130.455
205 1 0 13.38 133.8
206 1 0 16.725 0
207 1 0 16.725 3.345
208 1 0 16.725 6.69
209 1 0 16.725 10.035
210 1 0 16.725 13.38
211 1 0 16.725 16.725
212 1 0 16.725 20.07
213 1 0 16.725 23.415000000000003
214 1 0 16.725 26.76
215 1 0 16.725 30.105
216 1 0 16.725 33.45
217 1 0 16.725 36.795
218 1 0 16.725 40.14
219 1 0 16.725 43.485
220 1 0 16.725 46.830000000000005
221 1 0 16.725 50.175000000000004
222 1 0 16.725 53.52
223 1 0 16.725 56.865
224 1 0 16.725 60.21
225 1 0 16.725 63.55500000000001
226 1 0 16.725 66.9
227 1 0 16.725 70.245
228 1 0 16.725 73.59
229 1 0 16.725 76.935
230 1 0 16.725 80.28
231 1 0 16.725 83.625
232 1 0 16.725 86.97
233 1 0 16.725 90.31500000000001
234 1 0 16.725 93.66000000000001
235 1 0 16.725 97.00500000000001
236 1 0 16.725 100.35000000000001
237 1 0 16.725 103.69500000000001
238 1 0 16.725 107.04
239 1 0 16.725 110.385
240 1 0 16.725 113.73
241 1 0 16.725 117.075
242 1 0 16.725 120.42
243 1 0 16.725 123.765
244 1 0 16.725 127.11000000000001
245 1 0 16.725 130.455
246 1 0 16.725 133.8
247 1 0 20.07 0
248 1 0 20.07 3.345
249 1 0 20.07 6.69
250 1 0 20.07 10.035
251 1 0 20.07 13.38
252 1 0 20.07 16.725
253 1 0 20.07 20.07
254 1 0 20.07 23.415000000000003
255 1 0 20.07 26.76
256 1 0 20.07 30.105
257 1 0 20.07 33.45
258 1 0 20.07 36.795
259 1 0 20.07 40.14
260 1 0 20.07 43.485
261 1 0 20.07 46.830000000000005
262 1 0 20.07 50.175000000000004
263 1 0 20.07 53.52
264 1 0 20.07 56.865
265 1 0 20.07 60.21
266 1 0 20.07 63.55500000000001
267 1 0 20.07 66.9
268 1 0 20.07 70.245
269 1 0 20.07 73.59
270 1 0 20.07 76.935
271 1 0 20.07 80.28
272 1 0 20.07 83.625
273 1 0 20.07 86.97
274 1 0 20.07 90.31500000000001
275 1 0 20.07 93.66000000000001
276 1 0 20.07 97.00500000000001
277 1 0 20.07 100.35000000000001
278 1 0 20.07 103.69500000000001
279 1 0 20.07 107.04
280 1 0 20.07 110.385
281 1 0 20.07 113.73
282 1 0 20.07 117.075
283 1 0 20.07 120.42
284 1 0 20.07 123.765
285 1 0 20.07 127.11000000000001
286 1 0 20.07 130.455
287 1 0 20.07 133.8
288 1 0 23.415000000000003 0
289 1 0 23.415000000000003 3.345
290 1 0 23.415000000000003 6.69
291 1 0 23.415000000000003 10.035
292 1 0 23.415000000000003 13.38
293 1 0 23.415000000000003 16.725
294 1 0 23.415000000000003 20.07
295 1 0 23.415000000000003 23.415000000000003
296 1 0 23.415000000000003 26.76
297 1 0 23.415000000000003 30.105
298 1 0 23.415000000000003 33.45
299 1 0 23.415000000000003 36.795
300 1 0 23.415000000000003 40.14
301 1 0 23.415000000000003 43.485
302 1 0 23.415000000000003 46.830000000000005
303 1 0 23.415000000000003 50.175000000000004
304 1 0 23.415000000000003 53.52
305 1 0 23.415000000000003 56.865
306 1 0 23.415000000000003 60.21
307 1 0 23.415000000000003 63.55500000000001
308 1 0 23.415000000000003 66.9
309 1 0 23.415000000000003 70.245
310 1 0 23.415000000000003 73.59
311 1 0 23.415000000000003 76.935
312 1 0 23.415000000000003 80.28
313 1 0 23.415000000000003 83.625
314 1 0 23.415000000000003 86.97
315 1 0 23.415000000000003 90.31500000000001
316 1 0 23.415000000000003 93.66000000000001
317 1 0 23.415000000000003 97.00500000000001
318 1 0 23.415000000000003 100.35000000000001
319 1 0 23.415000000000003 103.69500000000001
320 1 0 23.415000000000003 107.04
321 1 0 23.415000000000003 110.385
322 1 0 23.415000000000003 113.73
323 1 0 23.415000000000003 117.075
324 1 0 23.415000000000003 120.42
325 1 0 23.415000000000003 123.765
326 1 0 23.415000000000003 127.11000000000001
327 1 0 23.415000000000003 130.455
328 1 0 23.415000000000003 133.8
329 1 0 26.76 0
330 1 0 26.76 3.345
331 1 0 26.76 6.69
332 1 0 26.76 10.035
333 1 0 26.76 13.38
334 1 0 26.76 16.725
335 1 0 26.76 20.07
336 1 0 26.76 23.415000000000003
337 1 0 26.76 26.76
338 1 0 26.76 30.105
339 1 0 26.76 33.45
340 1 0 26.76 36.795
341 1 0 26.76 40.14
342 1 0 26.76 43.485
343 1 0 26.76 46.830000000000005
344 1 0 26.76 50.175000000000004
345 1 0 26.76 53.52
346 1 0 26.76 56.865
347 1 0 26.76 60.21
348 1 0 26.76 63.55500000000001
349 1 0 26.76 66.9
350 1 0 26.76 70.245
351 1 0 26.76 73.59
352 1 0 26.76 76.935
353 1 0 26.76 80.28
354 1 0 26.76 83.625
355 1 0 26.76 86.97
356 1 0 26.76 90.31500000000001
357 1 0 26.76 93.66000000000001
358 1 0 26.76 97.00500000000001
359 1 0 26.76 100.35000000000001
360 1 0 26.76 103.69500000000001
361 1 0 26.76 107.04
362 1 0 26.76 110.385
363 1 0 26.76 113.73
364 1 0 26.76 117.075
365 1 0 26.76 120.42
366 1 0 26.76 123.765
367 1 0 26.76 127.11000000000001
368 1 0 26.76 130.455
369 1 0 26.76 133.8
370 1 0 30.105 0
371 1 0 30.105 3.345
372 1 0 30.105 6.69
373 1 0 30.105 10.035
374 1 0 30.105 13.38
375 1 0 30.105 16.725
376 1 0 30.105 20.07
377 1 0 30.105 23.415000000000003
378 1 0 30.105 26.76
379 1 0 30.105 30.105
380 1 0 30.105 33.45
381 1 0 30.105 36.795
382 1 0 30.105 40.14
383 1 0 30.105 43.485
384 1 0 30.105 46.830000000000005
385 1 0 30.105 50.175000000000004
386 1 0 30.105 53.52
387 1 0 30.105 56.865
388 1 0 30.105 60.21
389 1 0 30.105 63.55500000000001
390 1 0 30.105 66.9
391 1 0 30.105 70.245
392 1 0 30.105 73.59
393 1 0 30.105 76.935
394 1 0 30.105 80.28
395 1 0 30.105 83.625
396 1 0 30.105 86.97
397 1 0 30.105 90.31500000000001
398 1 0 30.105 93.66000000000001
399 1 0 30.105 97.00500000000001
400 1 0 30.105 100.35000000000001
401 1 0 30.105 103.69500000000001
402 1 0 30.105 107.04
403 1 0 30.105 110.385
404 1 0 30.105 113.73
405 1 0 30.105 117.075
406 1 0 30.105 120.42
407 1 0 30.105 123.765
408 1 0 30.105 127.11000000000001
409 1 0 30.105 130.455
410 1 0 30.105 133.8
411 1 0 33.45 0
412 1 0 33.45 3.345
413 1 0 33.45 6.69
414 1 0 33.45 10.035
415 1 0 33.45 13.38
416 1 0 33.45 16.725
417 1 0 33.45 20.07
418 1 0 33.45 23.415000000000003
419 1 0 33.45 26.76
420 1 0 33.45 30.105
421 1 0 33.45 33.45
422 1 0 33.45 36.795
423 1 0 33.45 40.14
424 1 0 33.45 43.485
425 1 0 33.45 46.830000000000005
426 1 0 33.45 50.175000000000004
427 1 0 33.45 53.52
428 1 0 33.45 56.865
429 1 0 33.45 60.21
430 1 0 33.45 63.55500000000001
431 1 0 33.45 66.9
432 1 0 33.45 70.245
433 1 0 33.45 73.59
434 1 0 33.45 76.935
435 1 0 33.45 80.28
436 1 0 33.45 83.625
437 1 0 33.45 86.97
438 1 0 33.45 90.31500000000001
439 1 0 33.45 93.66000000000001
440 1 0 33.45 97.00500000000001
441 1 0 33.45 100.35000000000001
442 1 0 33.45 103.69500000000001
443 1 0 33.45 107.04
444 1 0 33.45 110.385
445 1 0 33.45 113.73
446 1 0 33.45 117.075
447 1 0 33.45 120.42
448 1 0 33.45 123.765
449 1 0 33.45 127.11000000000001
450 1 0 33.45 130.455
451 1 0 33.45 133.8
452 1 0 36.795 0
453 1 0 36.795 3.345
454 1 0 36.795 6.69
455 1 0 36.795 10.035
456 1 0 36.795 13.38
457 1 0 36.795 16.725
458 1 0 36.795 20.07
459 1 0 36.795 23.415000000000003
460 1 0 36.795 26.76
461 1 0 36.795 30.105
462 1 0 36.795 33.45
463 1 0 36.795 36.795
464 1 0 36.795 40.14
465 1 0 36.795 43.485
466 1 0 36.795 46.830000000000005
467 1 0 36.795 50.175000000000004
468 1 0 36.795 53.52
469 1 0 36.795 56.865
470 1 0 36.795 60.21
471 1 0 36.795 63.55500000000001
472 1 0 36.795 66.9
473 1 0 36.795 70.245
474 1 0 36.795 73.59
475 1 0 36.795 76.935
476 1 0 36.795 80.28
477 1 0 36.795 83.625
478 1 0 36.795 86.97
479 1 0 36.795 90.31500000000001
480 1 0 36.795 93.66000000000001
481 1 0 36.795 97.00500000000001
482 1 0 36.795 100.35000000000001
483 1 0 36.795 103.69500000000001
484 1 0 36.795 107.04
485 1 0 36.795 110.385
486 1 0 36.795 113.73
487 1 0 36.795 117.075
488 1 0 36.795 120.42
489 1 0 36.795 123.765
490 1 0 36.795 127.11000000000001
491 1 0 36.795 130.455
492 1 0 36.795 133.8
493 1 0 40.14 0
494 1 0 40.14 3.345
495 1 0 40.14 6.69
496 1 0 40.14 10.035
497 1 0 40.14 13.38
498 1 0 40.14 16.725
499 1 0 40.14 20.07
500 1 0 40.14 23.415000000000003
501 1 0 40.14 26.76
502 1 0 40.14 30.105
503 1 0 40.14 33.45
504 1 0 40.14 36.795
505 1 0 40.14 40.14
506 1 0 40.14 43.485
507 1 0 40.14 46.830000000000005
508 1 0 40.14 50.175000000000004
509 1 0 40.14 53.52
510 1 0 40.14 56.865
511 1 0 40.14 60.21
512 1 0 40.14 63.55500000000001
513 1 0 40.14 66.9
514 1 0 40.14 70.245
515 1 0 40.14 73.59
516 1 0 40.14 76.935
517 1 0 40.14 80.28
518 1 0 40.14 83.625
519 1 0 40.14 86.97
520 1 0 40.14 90.31500000000001
521 1 0 40.14 93.66000000000001
522 1 0 40.14 97.00500000000001
523 1 0 40.14 100.35000000000001
524 1 0 40.14 103.69500000000001
525 1 0 40.14 107.04
526 1 0 40.14 110.385
527 1 0 40.14 113.73
528 1 0 40.14 117.075
529 1 0 40.14 120.42
530 1 0 40.14 123.765
531 1 0 40.14 127.11000000000001
532 1 0 40.14 130.455
533 1 0 40.14 133.8
534 1 0 43.485 0
535 1 0 43.485 3.345
536 1 0 43.485 6.69
537 1 0 43.485 10.035
538 1 0 43.485 13.38
539 1 0 43.485 16.725
540 1 0 43.485 20.07
541 1 0 43.485 23.415000000000003
542 1 0 43.485 26.76
543 1 0 43.485 30.105
544 1 0 43.485 33.45
545 1 0 43.485 36.795
546 1 0 43.485 40.14
547 1 0 43.485 43.485
548 1 0 43.485 46.830000000000005
549 1 0 43.485 50.175000000000004
550 1 0 43.485 53.52
551 1 0 43.485 56.865
552 1 0 43.485 60.21
553 1 0 43.485 63.55500000000001
554 1 0 43.485 66.9
555 1 0 43.485 70.245
556 1 0 43.485 73.59
557 1 0 43.485 76.935
558 1 0 43.485 80.28
559 1 0 43.485 83.625
560 1 0 43.485 86.97
561 1 0 43.485 90.31500000000001
562 1 0 43.485 93.66000000000001
563 1 0 43.485 97.00500000000001
564 1 0 43.485 100.35000000000001
565 1 0 43.485 103.69500000000001
566 1 0 43.485 107.04
567 1 0 43.485 110.385
568 1 0 43.485 113.73
569 1 0 43.485 117.075
570 1 0 43.485 120.42
571 1 0 43.485 123.765
572 1 0 43.485 127.11000000000001
573 1 0 43.485 130.455
574 1 0 43.485 133.8
575 1 0 46.830000000000005 0
576 1 0 46.830000000000005 3.345
577 1 0 46.830000000000005 6.69
578 1 0 46.830000000000005 10.035
579 1 0 46.830000000000005 13.38
580 1 0 46.830000000000005 16.725
581 1 0 46.830000000000005 20.07
582 1 0 46.830000000000005 23.415000000000003
583 1 0 46.830000000000005 26.76
584 1 0 46.830000000000005 30.105
585 1 0 46.830000000000005 33.45
586 1 0 46.830000000000005 36.795
587 1 0 46.830000000000005 40.14
588 1 0 46.830000000000005 43.485
589 1 0 46.830000000000005 46.830000000000005
590 1 0 46.830000000000005 50.175000000000004
591 1 0 46.830000000000005 53.52
592 1 0 46.830000000000005 56.865
593 1 0 46.830000000000005 60.21
594 1 0 46.830000000000005 63.55500000000001
595 1 0 46.830000000000005 66.9
596 1 0 46.830000000000005 70.245
597 1 0 46.830000000000005 73.59
598 1 0 46.830000000000005 76.935
599 1 0 46.830000000000005 80.28
600 1 0 46.830000000000005 83.625
601 1 0 46.830000000000005 86.97
602 1 0 46.830000000000005 90.31500000000001
603 1 0 46.830000000000005 93.66000000000001
604 1 0 46.830000000000005 97.00500000000001
605 1 0 46.830000000000005 100.35000000000001
606 1 0 46.830000000000005 103.69500000000001
607 1 0 46.830000000000005 107.04
608 1 0 46.830000000000005 110.385
609 1 0 46.830000000000005 113.73
610 1 0 46.830000000000005 117.075
611 1 0 46.830000000000005 120.42
612 1 0 46.830000000000005 123.765
613 1 0 46.830000000000005 127.11000000000001
614 1 0 46.830000000000005 130.455
615 1 0 46.830000000000005 133.8
616 1 0 50.175000000000004 0
617 1 0 50.175000000000004 3.345
618 1 0 50.175000000000004 6.69
619 1 0 50.175000000000004 10.035
620 1 0 50.175000000000004 13.38
621 1 0 50.175000000000004 16.725
622 1 0 50.175000000000004 20.07
623 1 0 50.175000000000004 23.415000000000003
624 1 0 50.175000000000004 26.76
625 1 0 50.175000000000004 30.105
626 1 0 50.175000000000004 33.45
627 1 0 50.175000000000004 36.795
628 1 0 50.175000000000004 40.14
629 1 0 50.175000000000004 43.485
630 1 0 50.175000000000004 46.830000000000005
631 1 0 50.175000000000004 50.175000000000004
632 1 0 50.175000000000004 53.52
633 1 0 50.175000000000004 56.865
634 1 0 50.175000000000004 60.21
635 1 0 50.175000000000004 63.55500000000001
636 1 0 50.175000000000004 66.9
637 1 0 50.175000000000004 70.245
638 1 0 50.175000000000004 73.59
639 1 0 50.175000000000004 76.935
640 1 0 50.175000000000004 80.28
641 1 0 50.175000000000004 83.625
642 1 0 50.175000000000004 86.97
643 1 0 50.175000000000004 90.31500000000001
644 1 0 50.175000000000004 93.66000000000001
645 1 0 50.175000000000004 97.00500000000001
646 1 0 50.175000000000004 100.35000000000001
647 1 0 50.175000000000004 103.69500000000001
648 1 0 50.175000000000004 107.04
649 1 0 50.175000000000004 110.385
650 1 0 50.175000000000004 113.73
651 1 0 50.175000000000004 117.075
652 1 0 50.175000000000004 120.42
653 1 0 50.175000000000004 123.765
654 1 0 50.175000000000004 127.11000000000001
655 1 0 50.175000000000004 130.455
656 1 0 50.175000000000004 133.8
657 1 0 53.52 0
658 1 0 53.52 3.345
659 1 0 53.52 6.69
660 1 0 53.52 10.035
661 1 0 53.52 13.38
662 1 0 53.52 16.725
663 1 0 53.52 20.07
664 1 0 53.52 23.415000000000003
665 1 0 53.52 26.76
666 1 0 53.52 30.105
667 1 0 53.52 33.45
668 1 0 53.52 36.795
669 1 0 53.52 40.14
670 1 0 53.52 43.485
671 1 0 53.52 46.830000000000005
672 1 0 53.52 50.175000000000004
673 1 0 53.52 53.52
674 1 0 53.52 56.865
675 1 0 53.52 60.21
676 1 0 53.52 63.55500000000001
677 1 0 53.52 66.9
678 1 0 53.52 70.245
679 1 0 53.52 73.59
680 1 0 53.52 76.935
681 1 0 53.52 80.28
682 1 0 53.52 83.625
683 1 0 53.52 86.97
684 1 0 53.52 90.31500000000001
685 1 0 53.52 93.66000000000001
686 1 0 53.52 97.00500000000001
687 1 0 53.52 100.35000000000001
688 1 0 53.52 103.69500000000001
689 1 0 53.52 107.04
690 1 0 53.52 110.385
691 1 0 53.52 113.73
692 1 0 53.52 117.075
693 1 0 53.52 120.42
694 1 0 53.52 123.765
695 1 0 53.52 127.11000000000001
696 1 0 53.52 130.455
697 1 0 53.52 133.8
698 1 0 56.865 0
699 1 0 56.865 3.345
700 1 0 56.865 6.69
701 1 0 56.865 10.035
702 1 0 56.865 13.38
703 1 0 56.865 16.725
704 1 0 56.865 20.07
705 1 0 56.865 23.415000000000003
706 1 0 56.865 26.76
707 1 0 56.865 30.105
708 1 0 56.865 33.45
709 1 0 56.865 36.795
710 1 0 56.865 40.14
711 1 0 56.865 43.485
712 1 0 56.865 46.830000000000005
713 1 0 56.865 50.175000000000004
714 1 0 56.865 53.52
715 1 0 56.865 56.865
716 1 0 56.865 60.21
717 1 0 56.865 63.55500000000001
718 1 0 56.865 66.9
719 1 0 56.865 70.245
720 1 0 56.865 73.59
721 1 0 56.865 76.935
722 1 0 56.865 80.28
723 1 0 56.865 83.625
724 1 0 56.865 86.97
725 1 0 56.865 90.31500000000001
726 1 0 56.865 93.66000000000001
727 1 0 56.865 97.00500000000001
728 1 0 56.865 100.35000000000001
729 1 0 56.865 103.69500000000001
730 1 0 56.865 107.04
731 1 0 56.865 110.385
732 1 0 56.865 113.73
733 1 0 56.865 117.075
734 1 0 56.865 120.42
735 1 0 56.865 123.765
736 1 0 56.865 127.11000000000001
737 1 0 56.865 130.455
738 1 0 56.865 133.8
739 1 0 60.21 0
740 1 0 60.21 3.345
741 1 0 60.21 6.69
742 1 0 60.21 10.035
743 1 0 60.21 13.38
744 1 0 60.21 16.725
745 1 0 60.21 20.07
746 1 0 60.21 23.415000000000003
747 1 0 60.21 26.76
748 1 0 60.21 30.105
749 1 0 60.21 33.45
750 1 0 60.21 36.795
751 1 0 60.21 40.14
752 1 0 60.21 43.485
753 1 0 60.21 46.830000000000005
754 1 0 60.21 50.175000000000004
755 1 0 60.21 53.52
756 1 0 60.21 56.865
757 1 0 60.21 60.21
758 1 0 60.21 63.55500000000001
759 1 0 60.21 66.9
760 1 0 60.21 70.245
761 1 0 60.21 73.59
762 1 0 60.21 76.935
763 1 0 60.21 80.28
764 1 0 60.21 83.625
765 1 0 60.21 86.97
766 1 0 60.21 90.31500000000001
767 1 0 60.21 93.66000000000001
768 1 0 60.21 97.00500000000001
769 1 0 60.21 100.35000000000001
770 1 0 60.21 103.69500000000001
771 1 0 60.21 107.04
772 1 0 60.21 110.385
773 1 0 60.21 113.73
774 1 0 60.21 117.075
775 1 0 60.21 120.42
776 1 0 60.21 123.765
777 1 0 60.21 127.11000000000001
778 1 0 60.21 130.455
779 1 0 60.21 133.8
780 1 0 63.55500000000001 0
781 1 0 63.55500000000001 3.345
782 1 0 63.55500000000001 6.69
783 1 0 63.55500000000001 10.035
784 1 0 63.55500000000001 13.38
785 1 0 63.55500000000001 16.725
786 1 0 63.55500000000001 20.07
787 1 0 63.55500000000001 23.415000000000003
788 1 0 63.55500000000001 26.76
789 1 0 63.55500000000001 30.105
790 1 0 63.55500000000001 33.45
791 1 0 63.55500000000001 36.795
792 1 0 63.55500000000001 40.14
793 1 0 63.55500000000001 43.485
794 1 0 63.55500000000001 46.830000000000005
795 1 0 63.55500000000001 50.175000000000004
796 1 0 63.55500000000001 53.52
797 1 0 63.55500000000001 56.865
798 1 0 63.55500000000001 60.21
799 1 0 63.55500000000001 63.55500000000001
800 1 0 63.55500000000001 66.9
801 1 0 63.55500000000001 70.245
802 1 0 63.55500000000001 73.59
803 1 0 63.55500000000001 76.935
804 1 0 63.55500000000001 80.28
805 1 0 63.55500000000001 83.625
806 1 0 63.55500000000001 86.97
807 1 0 63.55500000000001 90.31500000000001
808 1 0 63.55500000000001 93.66000000000001
809 1 0 63.55500000000001 97.00500000000001
810 1 0 63.55500000000001 100.35000000000001
811 1 0 63.55500000000001 103.69500000000001
812 1 0 63.55500000000001 107.04
813 1 0 63.55500000000001 110.385
814 1 0 63.55500000000001 113.73
815 1 0 63.55500000000001 117.075
816 1 0 63.55500000000001 120.42
817 1 0 63.55500000000001 123.765
818 1 0 63.55500000000001 127.11000000000001
819 1 0 63.55500000000001 130.455
820 1 0 63.55500000000001 133.8
821 1 0 66.9 0
822 1 0 66.9 3.345
823 1 0 66.9 6.69
824 1 0 66.9 10.035
825 1 0 66.9 13.38
826 1 0 66.9 16.725
827 1 0 66.9 20.07
828 1 0 66.9 23.415000000000003
829 1 0 66.9 26.76
830 1 0 66.9 30.105
831 1 0 66.9 33.45
832 1 0 66.9 36.795
833 1 0 66.9 40.14
834 1 0 66.9 43.485
835 1 0 66.9 46.830000000000005
836 1 0 66.9 50.175000000000004
837 1 0 66.9 53.52
838 1 0 66.9 56.865
839 1 0 66.9 60.21
840 1 0 66.9 63.55500000000001
841 1 0 66.9 66.9
842 1 0 66.9 70.245
843 1 0 66.9 73.59
844 1 0 66.9 76.935
845 1 0 66.9 80.28
846 1 0 66.9 83.625
847 1 0 66.9 86.97
848 1 0 66.9 90.31500000000001
849 1 0 66.9 93.66000000000001
850 1 0 66.9 97.00500000000001
851 1 0 66.9 100.35000000000001
852 1 0 66.9 103.69500000000001
853 1 0 66.9 107.04
854 1 0 66.9 110.385
855 1 0 66.9 113.73
856 1 0 66.9 117.075
857 1 0 66.9 120.42
858 1 0 66.9 123.765
859 1 0 66.9 127.11000000000001
860 1 0 66.9 130.455
861 1 0 66.9 133.8
862 1 3.345 0 0
863 1 3.345 0 3.345
864 1 3.345 0 6.69
865 1 3.345 0 10.035
866 1 3.345 0 13.38
867 1 3.345 0 16.725
868 1 3.345 0 20.07
869 1 3.345 0 23.415000000000003
870 1 3.345 0 26.76
871 1 3.345 0 30.105
872 1 3.345 0 33.45
873 1 3.345 0 36.795
874 1 3.345 0 40.14
875 1 3.345 0 43.485
876 1 3.345 0 46.830000000000005
877 1 3.345 0 50.175000000000004
878 1 3.345 0 53.52
879 1 3.345 0 56.865
880 1 3.345 0 60.21
881 1 3.345 0 63.55500000000001
882 1 3.345 0 66.9
883 1 3.345 0 70.245
884 1 3.345 0 73.59
885 1 3.345 0 76.935
886 1 3.345 0 80.28
887 1 3.345 0 83.625
888 1 3.345 0 86.97
889 1 3.345 0 90.31500000000001
890 1 3.345 0 93.66000000000001
891 1 3.345 0 97.00500000000001
892 1 3.345 0 100.35000000000001
893 1 3.345 0 103.69500000000001
894 1 3.345 0 107.04
895 1 3.345 0 110.385
896 1 3.345 0 113.73
897 1 3.345 0 117.075
898 1 3.345 0 120.42
899 1 3.345 0 123.765
900 1 3.345 0 127.11000000000001
901 1 3.345 0 130.455
902 1 3.345 0 133.8
903 1 3.345 3.345 0
904 1 3.345 3.345 3.345
905 1 3.345 3.345 6.69
906 1 3.345 3.345 10.035
907 1 3.345 3.345 13.38
908 1 3.345 3.345 16.725
909 1 3.345 3.345 20.07
910 1 3.345 3.345 23.415000000000003
911 1 3.345 3.345 26.76
912 1 3.345 3.345 30.105
913 1 3.345 3.345 33.45
914 1 3.345 3.345 36.795
915 1 3.345 3.345 40.14
916 1 3.345 3.345 43.485
917 1 3.345 3.345 46.830000000000005
918 1 3.345 3.345 50.175000000000004
919 1 3.345 3.345 53.52
920 1 3.345 3.345 56.865
921 1 3.345 3.345 60.21
922 1 3.345 3.345 63.55500000000001
923 1 3.345 3.345 66.9
924 1 3.345 3.345 70.245
925 1 3.345 3.345 73.59
926 1 3.345 3.345 76.935
927 1 3.345 3.345 80.28
928 1 3.345 3.345 83.625
929 1 3.345 3.345 86.97
930 1 3.345 3.345 90.31500000000001
931 1 3.345 3.345 93.66000000000001
932 1 3.345 3.345 97.00500000000001
933 1 3.345 3.345 100.35000000000001
934 1 3.345 3.345 103.69500000000001
935 1 3.345 3.345 107.04
936 1 3.345 3.345 110.385
937 1 3.345 3.345 113.73
938 1 3.345 3.345 117.075
939 1 3.345 3.345 120.42
940 1 3.345 3.345 123.765
941 1 3.345 3.345 127.11000000000001
942 1 3.345 3.345 130.455
943 1 3.345 3.345 133.8
944 1 3.345 6.69 0
945 1 3.345 6.69 3.345
946 1 3.345 6.69 6.69
947 1 3.345 6.69 10.035
948 1 3.345 6.69 13.38
949 1 3.345 6.69 16.725
950 1 3.345 6.69 20.07
951 1 3.345 6.69 23.415000000000003
952 1 3.345 6.69 26.76
953 1 3.345 6.69 30.105
954 1 3.345 6.69 33.45
955 1 3.345 6.69 36.795
956 1 3.345 6.69 40.14
957 1 3.345 6.69 43.485
958 1 3.345 6.69 46.830000000000005
959 1 3.345 6.69 50.175000000000004
960 1 3.345 6.69 53.52
961 1 3.345 6.69 56.865
962 1 3.345 6.69 60.21
963 1 3.345 6.69 63.55500000000001
964 1 3.345 6.69 66.9
965 1 3.345 6.69 70.245
966 1 3.345 6.69 73.59
967 1 3.345 6.69 76.935
968 1 3.345 6.69 80.28
969 1 3.345 6.69 83.625
970 1 3.345 6.69 86.97
971 1 3.345 6.69 90.31500000000001
972 1 3.345 6.69 93.66000000000001
973 1 3.345 6.69 97.00500000000001
974 1 3.345 6.69 100.35000000000001
975 1 3.345 6.69 103.69500000000001
976 1 3.345 6.69 107.04
977 1 3.345 6.69 110.385
978 1 3.345 6.69 113.73
979 1 3.345 6.69 117.075
980 1 3.345 6.69 120.42
981 1 3.345 6.69 123.765
982 1 3.345 6.69 127.11000000000001
983 1 3.345 6.69 130.455
984 1 3.345 6.69 133.8
985 1 3.345 10.035 0
986 1 3.345 10.035 3.345
987 1 3.345 10.035 6.69
988 1 3.345 10.035 10.035
989 1 3.345 10.035 13.38
990 1 3.345 10.035 16.725
991 1 3.345 10.035 20.07
992 1 3.345 10.035 23.415000000000003
993 1 3.345 10.035 26.76
994 1 3.345 10.035 30.105
995 1 3.345 10.035 33.45
996 1 3.345 10.035 36.795
997 1 3.345 10.035 40.14
998 1 3.345 10.035 43.485
999 1 3.345 10.035 46.830000000000005
1000 1 3.345 10.035 50.175000000000004
1001 1 3.345 10.035 53.52
1002 1 3.345 10.035 56.865
1003 1 3.345 10.035 60.21
1004 1 3.345 10.035 63.55500000000001
1005 1 3.345 10.035 66.9
1006 1 3.345 10.035 70.245
1007 1 3.345 10.035 73.59
1008 1 3.345 10.035 76.935
1009 1 3.345 10.035 80.28
1010 1 3.345 10.035 83.625
1011 1 3.345 10.035 86.97
1012 1 3.345 10.035 90.31500000000001
1013 1 3.345 10.035 93.66000000000001
1014 1 3.345 10.035 97.00500000000001
1015 1 3.345 10.035 100.35000000000001
1016 1 3.345 10.035 103.69500000000001
1017 1 3.345 10.035 107.04
1018 1 3.345 10.035 110.385
1019 1 3.345 10.035 113.73
1020 1 3.345 10.035 117.075
1021 1 3.345 10.035 120.42
1022 1 3.345 10.035 123.765
1023 1 3.345 10.035 127.11000000000001
1024 1 3.345 10.035 130.455
1025 1 3.345 10.035 133.8
1026 1 3.345 13.38 0
1027 1 3.345 13.38 3.345
1028 1 3.345 13.38 6.69
1029 1 3.345 13.38 10.035
1030 1 3.345 13.38 13.38
1031 1 3.345 13.38 16.725
1032 1 3.345 13.38 20.07
1033 1 3.345 13.38 23.415000000000003
1034 1 3.345 13.38 26.76
1035 1 3.345 13.38 30.105
1036 1 3.345 13.38 33.45
1037 1 3.345 13.38 36.795
1038 1 3.345 13.38 40.14
1039 1 3.345 13.38 43.485
1040 1 3.345 13.38 46.830000000000005
1041 1 3.345 13.38 50.175000000000004
1042 1 3.345 13.38 53.52
1043 1 3.345 13.38 56.865
1044 1 3.345 13.38 60.21
1045 1 3.345 13.38 63.55500000000001
1046 1 3.345 13.38 66.9
1047 1 3.345 13.38 70.245
1048 1 3.345 13.38 73.59
1049 1 3.345 13.38 76.935
1050 1 3.345 13.38 80.28
1051 1 3.345 13.38 83.625
1052 1 3.345 13.38 86.97
1053 1 3.345 13.38 90.31500000000001
1054 1 3.345 13.38 93.66000000000001
1055 1 3.345 13.38 97.00500000000001
1056 1 3.345 13.38 100.35000000000001
1057 1 3.345 13.38 103.69500000000001
1058 1 3.345 13.38 107.04
1059 1 3.345 13.38 110.385
1060 1 3.345 13.38 113.73
1061 1 3.345 13.38 117.075
1062 1 3.345 13.38 120.42
1063 1 3.345 13.38 123.765
1064 1 3.345 13.38 127.11000000000001
1065 1 3.345 13.38 130.455
1066 1 3.345 13.38 133.8
1067 1 3.345 16.725 0
1068 1 3.345 16.725 3.345
1069 1 3.345 16.725 6.69
1070 1 3.345 16.725 10.035
1071 1 3.345 16.725 13.38
1072 1 3.345 16.725 16.725
1073 1 3.345 16.725 20.07
1074 1 3.345 16.725 23.415000000000003
1075 1 3.345 16.725 26.76
1076 1 3.345 16.725 30.105
1077 1 3.345 16.725 33.45
1078 1 3.345 16.725 36.795
1079 1 3.345 16.725 40.14
1080 1 3.345 16.725 43.485
1081 1 3.345 16.725 46.830000000000005
1082 1 3.345 16.725 50.175000000000004
1083 1 3.345 16.725 53.52
1084 1 3.345 16.725 56.865
1085 1 3.345 16.725 60.21
1086 1 3.345 16.725 63.55500000000001
1087 1 3.345 16.725 66.9
1088 1 3.345 16.725 70.245
1089 1 3.345 16.725 73.59
1090 1 3.345 16.725 76.935
1091 1 3.345 16.725 80.28
1092 1 3.345 16.725 83.625
1093 1 3.345 16.725 86.97
1094 1 3.345 16.725 90.31500000000001
1095 1 3.345 16.725 93.66000000000001
1096 1 3.345 16.725 97.00500000000001
1097 1 3.345 16.725 100.35000000000001
1098 1 3.345 16.725 103.69500000000001
1099 1 3.345 16.725 107.04
1100 1 3.345 16.725 110.385
1101 1 3.345 16.725 113.73
1102 1 3.345 16.725 117.075
1103 1 3.345 16.725 120.42
1104 1 3.345 16.725 123.765
1105 1 3.345 16.725 127.11000000000001
1106 1 3.345 16.725 130.455
1107 1 3.345 16.725 133.8
1108 1 3.345 20.07 0
1109 1 3.345 20.07 3.345
1110 1 3.345 20.07 6.69
1111 1 3.345 20.07 10.035
1112 1 3.345 20.07 13.38
1113 1 3.345 20.07 16.725
1114 1 3.345 20.07 20.07
1115 1 3.345 20.07 23.415000000000003
1116 1 3.345 20.07 26.76
1117 1 3.345 20.07 30.105
1118 1 3.345 20.07 33.45
1119 1 3.345 20.07 36.795
1120 1 3.345 20.07 40.14
1121 1 3.345 20.07 43.485
1122 1 3.345 20.07 46.830000000000005
1123 1 3.345 20.07 50.175000000000004
1124 1 3.345 20.07 53.52
1125 1 3.345 20.07 56.865
1126 1 3.345 20.07 60.21
1127 1 3.345 20.07 63.55500000000001
1128 1 3.345 20.07 66.9
1129 1 3.345 20.07 70.245
1130 1 3.345 20.07 73.59
1131 1 3.345 20.07 76.935
1132 1 3.345 20.07 80.28
1133 1 3.345 20.07 83.625
1134 1 3.345 20.07 86.97
1135 1 3.345 20.07 90.31500000000001
1136 1 3.345 20.07 93.66000000000001
1137 1 3.345 20.07 97.00500000000001
1138 1 3.345 20.07 100.35000000000001
1139 1 3.345 20.07 103.69500000000001
1140 1 3.345 20.07 107.04
1141 1 3.345 20.07 110.385
1142 1 3.345 20.07 113.73
1143 1 3.345 20.07 117.075