Some description

72324 atoms
1 atom types
0.0 20 xlo xhi
0.0 20 ylo yhi
0.0 40 zlo zhi

Atoms

1 1 0 0 0
2 1 0 0 4.0479
3 1 0 0 8.0958
4 1 0 0 12.1437
5 1 0 0 16.1916
6 1 0 0 20.2395
7 1 0 0 24.2874
8 1 0 0 28.335300000000004
9 1 0 0 32.3832
10 1 0 0 36.4311
11 1 0 0 40.479
12 1 0 0 44.526900000000005
13 1 0 0 48.5748
14 1 0 0 52.6227
15 1 0 0 56.67060000000001
16 1 0 0 60.718500000000006
17 1 0 0 64.7664
18 1 0 0 68.8143
19 1 0 0 72.8622
20 1 0 0 76.9101
21 1 0 0 80.958
22 1 0 0 85.00590000000001
23 1 0 0 89.05380000000001
24 1 0 0 93.10170000000001
25 1 0 0 97.1496
26 1 0 0 101.1975
27 1 0 0 105.2454
28 1 0 0 109.2933
29 1 0 0 113.34120000000001
30 1 0 0 117.38910000000001
31 1 0 0 121.43700000000001
32 1 0 0 125.48490000000001
33 1 0 0 129.5328
34 1 0 0 133.5807
35 1 0 0 137.6286
36 1 0 0 141.6765
37 1 0 0 145.7244
38 1 0 0 149.7723
39 1 0 0 153.8202
40 1 0 0 157.8681
41 1 0 0 161.916
42 1 0 4.0479 0
43 1 0 4.0479 4.0479
44 1 0 4.0479 8.0958
45 1 0 4.0479 12.1437
46 1 0 4.0479 16.1916
47 1 0 4.0479 20.2395
48 1 0 4.0479 24.2874
49 1 0 4.0479 28.335300000000004
50 1 0 4.0479 32.3832
51 1 0 4.0479 36.4311
52 1 0 4.0479 40.479
53 1 0 4.0479 44.526900000000005
54 1 0 4.0479 48.5748
55 1 0 4.0479 52.6227
56 1 0 4.0479 56.67060000000001
57 1 0 4.0479 60.718500000000006
58 1 0 4.0479 64.7664
59 1 0 4.0479 68.8143
60 1 0 4.0479 72.8622
61 1 0 4.0479 76.9101
62 1 0 4.0479 80.958
63 1 0 4.0479 85.00590000000001
64 1 0 4.0479 89.05380000000001
65 1 0 4.0479 93.10170000000001
66 1 0 4.0479 97.1496
67 1 0 4.0479 101.1975
68 1 0 4.0479 105.2454
69 1 0 4.0479 109.2933
70 1 0 4.0479 113.34120000000001
71 1 0 4.0479 117.38910000000001
72 1 0 4.0479 121.43700000000001
73 1 0 4.0479 125.48490000000001
74 1 0 4.0479 129.5328
75 1 0 4.0479 133.5807
76 1 0 4.0479 137.6286
77 1 0 4.0479 141.6765
78 1 0 4.0479 145.7244
79 1 0 4.0479 149.7723
80 1 0 4.0479 153.8202
81 1 0 4.0479 157.8681
82 1 0 4.0479 161.916
83 1 0 8.0958 0
84 1 0 8.0958 4.0479
85 1 0 8.0958 8.0958
86 1 0 8.0958 12.1437
87 1 0 8.0958 16.1916
88 1 0 8.0958 20.2395
89 1 0 8.0958 24.2874
90 1 0 8.0958 28.335300000000004
91 1 0 8.0958 32.3832
92 1 0 8.0958 36.4311
93 1 0 8.0958 40.479
94 1 0 8.0958 44.526900000000005
95 1 0 8.0958 48.5748
96 1 0 8.0958 52.6227
97 1 0 8.0958 56.67060000000001
98 1 0 8.0958 60.718500000000006
99 1 0 8.0958 64.7664
100 1 0 8.0958 68.8143
101 1 0 8.0958 72.8622
102 1 0 8.0958 76.9101
103 1 0 8.0958 80.958
104 1 0 8.0958 85.00590000000001
105 1 0 8.0958 89.05380000000001
106 1 0 8.0958 93.10170000000001
107 1 0 8.0958 97.1496
108 1 0 8.0958 101.1975
109 1 0 8.0958 105.2454
110 1 0 8.0958 109.2933
111 1 0 8.0958 113.34120000000001
112 1 0 8.0958 117.38910000000001
113 1 0 8.0958 121.43700000000001
114 1 0 8.0958 125.48490000000001
115 1 0 8.0958 129.5328
116 1 0 8.0958 133.5807
117 1 0 8.0958 137.6286
118 1 0 8.0958 141.6765
119 1 0 8.0958 145.7244
120 1 0 8.0958 149.7723
121 1 0 8.0958 153.8202
122 1 0 8.0958 157.8681
123 1 0 8.0958 161.916
124 1 0 12.1437 0
125 1 0 12.1437 4.0479
126 1 0 12.1437 8.0958
127 1 0 12.1437 12.1437
128 1 0 12.1437 16.1916
129 1 0 12.1437 20.2395
130 1 0 12.1437 24.2874
131 1 0 12.1437 28.335300000000004
132 1 0 12.1437 32.3832
133 1 0 12.1437 36.4311
134 1 0 12.1437 40.479
135 1 0 12.1437 44.526900000000005
136 1 0 12.1437 48.5748
137 1 0 12.1437 52.6227
138 1 0 12.1437 56.67060000000001
139 1 0 12.1437 60.718500000000006
140 1 0 12.1437 64.7664
141 1 0 12.1437 68.8143
142 1 0 12.1437 72.8622
143 1 0 12.1437 76.9101
144 1 0 12.1437 80.958
145 1 0 12.1437 85.00590000000001
146 1 0 12.1437 89.05380000000001
147 1 0 12.1437 93.10170000000001
148 1 0 12.1437 97.1496
149 1 0 12.1437 101.1975
150 1 0 12.1437 105.2454
151 1 0 12.1437 109.2933
152 1 0 12.1437 113.34120000000001
153 1 0 12.1437 117.38910000000001
154 1 0 12.1437 121.43700000000001
155 1 0 12.1437 125.48490000000001
156 1 0 12.1437 129.5328
157 1 0 12.1437 133.5807
158 1 0 12.1437 137.6286
159 1 0 12.1437 141.6765
160 1 0 12.1437 145.7244
161 1 0 12.1437 149.7723
162 1 0 12.1437 153.8202
163 1 0 12.1437 157.8681
164 1 0 12.1437 161.916
165 1 0 16.1916 0
166 1 0 16.1916 4.0479
167 1 0 16.1916 8.0958
168 1 0 16.1916 12.1437
169 1 0 16.1916 16.1916
170 1 0 16.1916 20.2395
171 1 0 16.1916 24.2874
172 1 0 16.1916 28.335300000000004
173 1 0 16.1916 32.3832
174 1 0 16.1916 36.4311
175 1 0 16.1916 40.479
176 1 0 16.1916 44.526900000000005
177 1 0 16.1916 48.5748
178 1 0 16.1916 52.6227
179 1 0 16.1916 56.67060000000001
180 1 0 16.1916 60.718500000000006
181 1 0 16.1916 64.7664
182 1 0 16.1916 68.8143
183 1 0 16.1916 72.8622
184 1 0 16.1916 76.9101
185 1 0 16.1916 80.958
186 1 0 16.1916 85.00590000000001
187 1 0 16.1916 89.05380000000001
188 1 0 16.1916 93.10170000000001
189 1 0 16.1916 97.1496
190 1 0 16.1916 101.1975
191 1 0 16.1916 105.2454
192 1 0 16.1916 109.2933
193 1 0 16.1916 113.34120000000001
194 1 0 16.1916 117.38910000000001
195 1 0 16.1916 121.43700000000001
196 1 0 16.1916 125.48490000000001
197 1 0 16.1916 129.5328
198 1 0 16.1916 133.5807
199 1 0 16.1916 137.6286
200 1 0 16.1916 141.6765
201 1 0 16.1916 145.7244
202 1 0 16.1916 149.7723
203 1 0 16.1916 153.8202
204 1 0 16.1916 157.8681
205 1 0 16.1916 161.916
206 1 0 20.2395 0
207 1 0 20.2395 4.0479
208 1 0 20.2395 8.0958
209 1 0 20.2395 12.1437
210 1 0 20.2395 16.1916
211 1 0 20.2395 20.2395
212 1 0 20.2395 24.2874
213 1 0 20.2395 28.335300000000004
214 1 0 20.2395 32.3832
215 1 0 20.2395 36.4311
216 1 0 20.2395 40.479
217 1 0 20.2395 44.526900000000005
218 1 0 20.2395 48.5748
219 1 0 20.2395 52.6227
220 1 0 20.2395 56.67060000000001
221 1 0 20.2395 60.718500000000006
222 1 0 20.2395 64.7664
223 1 0 20.2395 68.8143
224 1 0 20.2395 72.8622
225 1 0 20.2395 76.9101
226 1 0 20.2395 80.958
227 1 0 20.2395 85.00590000000001
228 1 0 20.2395 89.05380000000001
229 1 0 20.2395 93.10170000000001
230 1 0 20.2395 97.1496
231 1 0 20.2395 101.1975
232 1 0 20.2395 105.2454
233 1 0 20.2395 109.2933
234 1 0 20.2395 113.34120000000001
235 1 0 20.2395 117.38910000000001
236 1 0 20.2395 121.43700000000001
237 1 0 20.2395 125.48490000000001
238 1 0 20.2395 129.5328
239 1 0 20.2395 133.5807
240 1 0 20.2395 137.6286
241 1 0 20.2395 141.6765
242 1 0 20.2395 145.7244
243 1 0 20.2395 149.7723
244 1 0 20.2395 153.8202
245 1 0 20.2395 157.8681
246 1 0 20.2395 161.916
247 1 0 24.2874 0
248 1 0 24.2874 4.0479
249 1 0 24.2874 8.0958
250 1 0 24.2874 12.1437
251 1 0 24.2874 16.1916
252 1 0 24.2874 20.2395
253 1 0 24.2874 24.2874
254 1 0 24.2874 28.335300000000004
255 1 0 24.2874 32.3832
256 1 0 24.2874 36.4311
257 1 0 24.2874 40.479
258 1 0 24.2874 44.526900000000005
259 1 0 24.2874 48.5748
260 1 0 24.2874 52.6227
261 1 0 24.2874 56.67060000000001
262 1 0 24.2874 60.718500000000006
263 1 0 24.2874 64.7664
264 1 0 24.2874 68.8143
265 1 0 24.2874 72.8622
266 1 0 24.2874 76.9101
267 1 0 24.2874 80.958
268 1 0 24.2874 85.00590000000001
269 1 0 24.2874 89.05380000000001
270 1 0 24.2874 93.10170000000001
271 1 0 24.2874 97.1496
272 1 0 24.2874 101.1975
273 1 0 24.2874 105.2454
274 1 0 24.2874 109.2933
275 1 0 24.2874 113.34120000000001
276 1 0 24.2874 117.38910000000001
277 1 0 24.2874 121.43700000000001
278 1 0 24.2874 125.48490000000001
279 1 0 24.2874 129.5328
280 1 0 24.2874 133.5807
281 1 0 24.2874 137.6286
282 1 0 24.2874 141.6765
283 1 0 24.2874 145.7244
284 1 0 24.2874 149.7723
285 1 0 24.2874 153.8202
286 1 0 24.2874 157.8681
287 1 0 24.2874 161.916
288 1 0 28.335300000000004 0
289 1 0 28.335300000000004 4.0479
290 1 0 28.335300000000004 8.0958
291 1 0 28.335300000000004 12.1437
292 1 0 28.335300000000004 16.1916
293 1 0 28.335300000000004 20.2395
294 1 0 28.335300000000004 24.2874
295 1 0 28.335300000000004 28.335300000000004
296 1 0 28.335300000000004 32.3832
297 1 0 28.335300000000004 36.4311
298 1 0 28.335300000000004 40.479
299 1 0 28.335300000000004 44.526900000000005
300 1 0 28.335300000000004 48.5748
301 1 0 28.335300000000004 52.6227
302 1 0 28.335300000000004 56.67060000000001
303 1 0 28.335300000000004 60.718500000000006
304 1 0 28.335300000000004 64.7664
305 1 0 28.335300000000004 68.8143
306 1 0 28.335300000000004 72.8622
307 1 0 28.335300000000004 76.9101
308 1 0 28.335300000000004 80.958
309 1 0 28.335300000000004 85.00590000000001
310 1 0 28.335300000000004 89.05380000000001
311 1 0 28.335300000000004 93.10170000000001
312 1 0 28.335300000000004 97.1496
313 1 0 28.335300000000004 101.1975
314 1 0 28.335300000000004 105.2454
315 1 0 28.335300000000004 109.2933
316 1 0 28.335300000000004 113.34120000000001
317 1 0 28.335300000000004 117.38910000000001
318 1 0 28.335300000000004 121.43700000000001
319 1 0 28.335300000000004 125.48490000000001
320 1 0 28.335300000000004 129.5328
321 1 0 28.335300000000004 133.5807
322 1 0 28.335300000000004 137.6286
323 1 0 28.335300000000004 141.6765
324 1 0 28.335300000000004 145.7244
325 1 0 28.335300000000004 149.7723
326 1 0 28.335300000000004 153.8202
327 1 0 28.335300000000004 157.8681
328 1 0 28.335300000000004 161.916
329 1 0 32.3832 0
330 1 0 32.3832 4.0479
331 1 0 32.3832 8.0958
332 1 0 32.3832 12.1437
333 1 0 32.3832 16.1916
334 1 0 32.3832 20.2395
335 1 0 32.3832 24.2874
336 1 0 32.3832 28.335300000000004
337 1 0 32.3832 32.3832
338 1 0 32.3832 36.4311
339 1 0 32.3832 40.479
340 1 0 32.3832 44.526900000000005
341 1 0 32.3832 48.5748
342 1 0 32.3832 52.6227
343 1 0 32.3832 56.67060000000001
344 1 0 32.3832 60.718500000000006
345 1 0 32.3832 64.7664
346 1 0 32.3832 68.8143
347 1 0 32.3832 72.8622
348 1 0 32.3832 76.9101
349 1 0 32.3832 80.958
350 1 0 32.3832 85.00590000000001
351 1 0 32.3832 89.05380000000001
352 1 0 32.3832 93.10170000000001
353 1 0 32.3832 97.1496
354 1 0 32.3832 101.1975
355 1 0 32.3832 105.2454
356 1 0 32.3832 109.2933
357 1 0 32.3832 113.34120000000001
358 1 0 32.3832 117.38910000000001
359 1 0 32.3832 121.43700000000001
360 1 0 32.3832 125.48490000000001
361 1 0 32.3832 129.5328
362 1 0 32.3832 133.5807
363 1 0 32.3832 137.6286
364 1 0 32.3832 141.6765
365 1 0 32.3832 145.7244
366 1 0 32.3832 149.7723
367 1 0 32.3832 153.8202
368 1 0 32.3832 157.8681
369 1 0 32.3832 161.916
370 1 0 36.4311 0
371 1 0 36.4311 4.0479
372 1 0 36.4311 8.0958
373 1 0 36.4311 12.1437
374 1 0 36.4311 16.1916
375 1 0 36.4311 20.2395
376 1 0 36.4311 24.2874
377 1 0 36.4311 28.335300000000004
378 1 0 36.4311 32.3832
379 1 0 36.4311 36.4311
380 1 0 36.4311 40.479
381 1 0 36.4311 44.526900000000005
382 1 0 36.4311 48.5748
383 1 0 36.4311 52.6227
384 1 0 36.4311 56.67060000000001
385 1 0 36.4311 60.718500000000006
386 1 0 36.4311 64.7664
387 1 0 36.4311 68.8143
388 1 0 36.4311 72.8622
389 1 0 36.4311 76.9101
390 1 0 36.4311 80.958
391 1 0 36.4311 85.00590000000001
392 1 0 36.4311 89.05380000000001
393 1 0 36.4311 93.10170000000001
394 1 0 36.4311 97.1496
395 1 0 36.4311 101.1975
396 1 0 36.4311 105.2454
397 1 0 36.4311 109.2933
398 1 0 36.4311 113.34120000000001
399 1 0 36.4311 117.38910000000001
400 1 0 36.4311 121.43700000000001
401 1 0 36.4311 125.48490000000001
402 1 0 36.4311 129.5328
403 1 0 36.4311 133.5807
404 1 0 36.4311 137.6286
405 1 0 36.4311 141.6765
406 1 0 36.4311 145.7244
407 1 0 36.4311 149.7723
408 1 0 36.4311 153.8202
409 1 0 36.4311 157.8681
410 1 0 36.4311 161.916
411 1 0 40.479 0
412 1 0 40.479 4.0479
413 1 0 40.479 8.0958
414 1 0 40.479 12.1437
415 1 0 40.479 16.1916
416 1 0 40.479 20.2395
417 1 0 40.479 24.2874
418 1 0 40.479 28.335300000000004
419 1 0 40.479 32.3832
420 1 0 40.479 36.4311
421 1 0 40.479 40.479
422 1 0 40.479 44.526900000000005
423 1 0 40.479 48.5748
424 1 0 40.479 52.6227
425 1 0 40.479 56.67060000000001
426 1 0 40.479 60.718500000000006
427 1 0 40.479 64.7664
428 1 0 40.479 68.8143
429 1 0 40.479 72.8622
430 1 0 40.479 76.9101
431 1 0 40.479 80.958
432 1 0 40.479 85.00590000000001
433 1 0 40.479 89.05380000000001
434 1 0 40.479 93.10170000000001
435 1 0 40.479 97.1496
436 1 0 40.479 101.1975
437 1 0 40.479 105.2454
438 1 0 40.479 109.2933
439 1 0 40.479 113.34120000000001
440 1 0 40.479 117.38910000000001
441 1 0 40.479 121.43700000000001
442 1 0 40.479 125.48490000000001
443 1 0 40.479 129.5328
444 1 0 40.479 133.5807
445 1 0 40.479 137.6286
446 1 0 40.479 141.6765
447 1 0 40.479 145.7244
448 1 0 40.479 149.7723
449 1 0 40.479 153.8202
450 1 0 40.479 157.8681
451 1 0 40.479 161.916
452 1 0 44.526900000000005 0
453 1 0 44.526900000000005 4.0479
454 1 0 44.526900000000005 8.0958
455 1 0 44.526900000000005 12.1437
456 1 0 44.526900000000005 16.1916
457 1 0 44.526900000000005 20.2395
458 1 0 44.526900000000005 24.2874
459 1 0 44.526900000000005 28.335300000000004
460 1 0 44.526900000000005 32.3832
461 1 0 44.526900000000005 36.4311
462 1 0 44.526900000000005 40.479
463 1 0 44.526900000000005 44.526900000000005
464 1 0 44.526900000000005 48.5748
465 1 0 44.526900000000005 52.6227
466 1 0 44.526900000000005 56.67060000000001
467 1 0 44.526900000000005 60.718500000000006
468 1 0 44.526900000000005 64.7664
469 1 0 44.526900000000005 68.8143
470 1 0 44.526900000000005 72.8622
471 1 0 44.526900000000005 76.9101
472 1 0 44.526900000000005 80.958
473 1 0 44.526900000000005 85.00590000000001
474 1 0 44.526900000000005 89.05380000000001
475 1 0 44.526900000000005 93.10170000000001
476 1 0 44.526900000000005 97.1496
477 1 0 44.526900000000005 101.1975
478 1 0 44.526900000000005 105.2454
479 1 0 44.526900000000005 109.2933
480 1 0 44.526900000000005 113.34120000000001
481 1 0 44.526900000000005 117.38910000000001
482 1 0 44.526900000000005 121.43700000000001
483 1 0 44.526900000000005 125.48490000000001
484 1 0 44.526900000000005 129.5328
485 1 0 44.526900000000005 133.5807
486 1 0 44.526900000000005 137.6286
487 1 0 44.526900000000005 141.6765
488 1 0 44.526900000000005 145.7244
489 1 0 44.526900000000005 149.7723
490 1 0 44.526900000000005 153.8202
491 1 0 44.526900000000005 157.8681
492 1 0 44.526900000000005 161.916
493 1 0 48.5748 0
494 1 0 48.5748 4.0479
495 1 0 48.5748 8.0958
496 1 0 48.5748 12.1437
497 1 0 48.5748 16.1916
498 1 0 48.5748 20.2395
499 1 0 48.5748 24.2874
500 1 0 48.5748 28.335300000000004
501 1 0 48.5748 32.3832
502 1 0 48.5748 36.4311
503 1 0 48.5748 40.479
504 1 0 48.5748 44.526900000000005
505 1 0 48.5748 48.5748
506 1 0 48.5748 52.6227
507 1 0 48.5748 56.67060000000001
508 1 0 48.5748 60.718500000000006
509 1 0 48.5748 64.7664
510 1 0 48.5748 68.8143
511 1 0 48.5748 72.8622
512 1 0 48.5748 76.9101
513 1 0 48.5748 80.958
514 1 0 48.5748 85.00590000000001
515 1 0 48.5748 89.05380000000001
516 1 0 48.5748 93.10170000000001
517 1 0 48.5748 97.1496
518 1 0 48.5748 101.1975
519 1 0 48.5748 105.2454
520 1 0 48.5748 109.2933
521 1 0 48.5748 113.34120000000001
522 1 0 48.5748 117.38910000000001
523 1 0 48.5748 121.43700000000001
524 1 0 48.5748 125.48490000000001
525 1 0 48.5748 129.5328
526 1 0 48.5748 133.5807
527 1 0 48.5748 137.6286
528 1 0 48.5748 141.6765
529 1 0 48.5748 145.7244
530 1 0 48.5748 149.7723
531 1 0 48.5748 153.8202
532 1 0 48.5748 157.8681
533 1 0 48.5748 161.916
534 1 0 52.6227 0
535 1 0 52.6227 4.0479
536 1 0 52.6227 8.0958
537 1 0 52.6227 12.1437
538 1 0 52.6227 16.1916
539 1 0 52.6227 20.2395
540 1 0 52.6227 24.2874
541 1 0 52.6227 28.335300000000004
542 1 0 52.6227 32.3832
543 1 0 52.6227 36.4311
544 1 0 52.6227 40.479
545 1 0 52.6227 44.526900000000005
546 1 0 52.6227 48.5748
547 1 0 52.6227 52.6227
548 1 0 52.6227 56.67060000000001
549 1 0 52.6227 60.718500000000006
550 1 0 52.6227 64.7664
551 1 0 52.6227 68.8143
552 1 0 52.6227 72.8622
553 1 0 52.6227 76.9101
554 1 0 52.6227 80.958
555 1 0 52.6227 85.00590000000001
556 1 0 52.6227 89.05380000000001
557 1 0 52.6227 93.10170000000001
558 1 0 52.6227 97.1496
559 1 0 52.6227 101.1975
560 1 0 52.6227 105.2454
561 1 0 52.6227 109.2933
562 1 0 52.6227 113.34120000000001
563 1 0 52.6227 117.38910000000001
564 1 0 52.6227 121.43700000000001
565 1 0 52.6227 125.48490000000001
566 1 0 52.6227 129.5328
567 1 0 52.6227 133.5807
568 1 0 52.6227 137.6286
569 1 0 52.6227 141.6765
570 1 0 52.6227 145.7244
571 1 0 52.6227 149.7723
572 1 0 52.6227 153.8202
573 1 0 52.6227 157.8681
574 1 0 52.6227 161.916
575 1 0 56.67060000000001 0
576 1 0 56.67060000000001 4.0479
577 1 0 56.67060000000001 8.0958
578 1 0 56.67060000000001 12.1437
579 1 0 56.67060000000001 16.1916
580 1 0 56.67060000000001 20.2395
581 1 0 56.67060000000001 24.2874
582 1 0 56.67060000000001 28.335300000000004
583 1 0 56.67060000000001 32.3832
584 1 0 56.67060000000001 36.4311
585 1 0 56.67060000000001 40.479
586 1 0 56.67060000000001 44.526900000000005
587 1 0 56.67060000000001 48.5748
588 1 0 56.67060000000001 52.6227
589 1 0 56.67060000000001 56.67060000000001
590 1 0 56.67060000000001 60.718500000000006
591 1 0 56.67060000000001 64.7664
592 1 0 56.67060000000001 68.8143
593 1 0 56.67060000000001 72.8622
594 1 0 56.67060000000001 76.9101
595 1 0 56.67060000000001 80.958
596 1 0 56.67060000000001 85.00590000000001
597 1 0 56.67060000000001 89.05380000000001
598 1 0 56.67060000000001 93.10170000000001
599 1 0 56.67060000000001 97.1496
600 1 0 56.67060000000001 101.1975
601 1 0 56.67060000000001 105.2454
602 1 0 56.67060000000001 109.2933
603 1 0 56.67060000000001 113.34120000000001
604 1 0 56.67060000000001 117.38910000000001
605 1 0 56.67060000000001 121.43700000000001
606 1 0 56.67060000000001 125.48490000000001
607 1 0 56.67060000000001 129.5328
608 1 0 56.67060000000001 133.5807
609 1 0 56.67060000000001 137.6286
610 1 0 56.67060000000001 141.6765
611 1 0 56.67060000000001 145.7244
612 1 0 56.67060000000001 149.7723
613 1 0 56.67060000000001 153.8202
614 1 0 56.67060000000001 157.8681
615 1 0 56.67060000000001 161.916
616 1 0 60.718500000000006 0
617 1 0 60.718500000000006 4.0479
618 1 0 60.718500000000006 8.0958
619 1 0 60.718500000000006 12.1437
620 1 0 60.718500000000006 16.1916
621 1 0 60.718500000000006 20.2395
622 1 0 60.718500000000006 24.2874
623 1 0 60.718500000000006 28.335300000000004
624 1 0 60.718500000000006 32.3832
625 1 0 60.718500000000006 36.4311
626 1 0 60.718500000000006 40.479
627 1 0 60.718500000000006 44.526900000000005
628 1 0 60.718500000000006 48.5748
629 1 0 60.718500000000006 52.6227
630 1 0 60.718500000000006 56.67060000000001
631 1 0 60.718500000000006 60.718500000000006
632 1 0 60.718500000000006 64.7664
633 1 0 60.718500000000006 68.8143
634 1 0 60.718500000000006 72.8622
635 1 0 60.718500000000006 76.9101
636 1 0 60.718500000000006 80.958
637 1 0 60.718500000000006 85.00590000000001
638 1 0 60.718500000000006 89.05380000000001
639 1 0 60.718500000000006 93.10170000000001
640 1 0 60.718500000000006 97.1496
641 1 0 60.718500000000006 101.1975
642 1 0 60.718500000000006 105.2454
643 1 0 60.718500000000006 109.2933
644 1 0 60.718500000000006 113.34120000000001
645 1 0 60.718500000000006 117.38910000000001
646 1 0 60.718500000000006 121.43700000000001
647 1 0 60.718500000000006 125.48490000000001
648 1 0 60.718500000000006 129.5328
649 1 0 60.718500000000006 133.5807
650 1 0 60.718500000000006 137.6286
651 1 0 60.718500000000006 141.6765
652 1 0 60.718500000000006 145.7244
653 1 0 60.718500000000006 149.7723
654 1 0 60.718500000000006 153.8202
655 1 0 60.718500000000006 157.8681
656 1 0 60.718500000000006 161.916
657 1 0 64.7664 0
658 1 0 64.7664 4.0479
659 1 0 64.7664 8.0958
660 1 0 64.7664 12.1437
661 1 0 64.7664 16.1916
662 1 0 64.7664 20.2395
663 1 0 64.7664 24.2874
664 1 0 64.7664 28.335300000000004
665 1 0 64.7664 32.3832
666 1 0 64.7664 36.4311
667 1 0 64.7664 40.479
668 1 0 64.7664 44.526900000000005
669 1 0 64.7664 48.5748
670 1 0 64.7664 52.6227
671 1 0 64.7664 56.67060000000001
672 1 0 64.7664 60.718500000000006
673 1 0 64.7664 64.7664
674 1 0 64.7664 68.8143
675 1 0 64.7664 72.8622
676 1 0 64.7664 76.9101
677 1 0 64.7664 80.958
678 1 0 64.7664 85.00590000000001
679 1 0 64.7664 89.05380000000001
680 1 0 64.7664 93.10170000000001
681 1 0 64.7664 97.1496
682 1 0 64.7664 101.1975
683 1 0 64.7664 105.2454
684 1 0 64.7664 109.2933
685 1 0 64.7664 113.34120000000001
686 1 0 64.7664 117.38910000000001
687 1 0 64.7664 121.43700000000001
688 1 0 64.7664 125.48490000000001
689 1 0 64.7664 129.5328
690 1 0 64.7664 133.5807
691 1 0 64.7664 137.6286
692 1 0 64.7664 141.6765
693 1 0 64.7664 145.7244
694 1 0 64.7664 149.7723
695 1 0 64.7664 153.8202
696 1 0 64.7664 157.8681
697 1 0 64.7664 161.916
698 1 0 68.8143 0
699 1 0 68.8143 4.0479
700 1 0 68.8143 8.0958
701 1 0 68.8143 12.1437
702 1 0 68.8143 16.1916
703 1 0 68.8143 20.2395
704 1 0 68.8143 24.2874
705 1 0 68.8143 28.335300000000004
706 1 0 68.8143 32.3832
707 1 0 68.8143 36.4311
708 1 0 68.8143 40.479
709 1 0 68.8143 44.526900000000005
710 1 0 68.8143 48.5748
711 1 0 68.8143 52.6227
712 1 0 68.8143 56.67060000000001
713 1 0 68.8143 60.718500000000006
714 1 0 68.8143 64.7664
715 1 0 68.8143 68.8143
716 1 0 68.8143 72.8622
717 1 0 68.8143 76.9101
718 1 0 68.8143 80.958
719 1 0 68.8143 85.00590000000001
720 1 0 68.8143 89.05380000000001
721 1 0 68.8143 93.10170000000001
722 1 0 68.8143 97.1496
723 1 0 68.8143 101.1975
724 1 0 68.8143 105.2454
725 1 0 68.8143 109.2933
726 1 0 68.8143 113.34120000000001
727 1 0 68.8143 117.38910000000001
728 1 0 68.8143 121.43700000000001
729 1 0 68.8143 125.48490000000001
730 1 0 68.8143 129.5328
731 1 0 68.8143 133.5807
732 1 0 68.8143 137.6286
733 1 0 68.8143 141.6765
734 1 0 68.8143 145.7244
735 1 0 68.8143 149.7723
736 1 0 68.8143 153.8202
737 1 0 68.8143 157.8681
738 1 0 68.8143 161.916
739 1 0 72.8622 0
740 1 0 72.8622 4.0479
741 1 0 72.8622 8.0958
742 1 0 72.8622 12.1437
743 1 0 72.8622 16.1916
744 1 0 72.8622 20.2395
745 1 0 72.8622 24.2874
746 1 0 72.8622 28.335300000000004
747 1 0 72.8622 32.3832
748 1 0 72.8622 36.4311
749 1 0 72.8622 40.479
750 1 0 72.8622 44.526900000000005
751 1 0 72.8622 48.5748
752 1 0 72.8622 52.6227
753 1 0 72.8622 56.67060000000001
754 1 0 72.8622 60.718500000000006
755 1 0 72.8622 64.7664
756 1 0 72.8622 68.8143
757 1 0 72.8622 72.8622
758 1 0 72.8622 76.9101
759 1 0 72.8622 80.958
760 1 0 72.8622 85.00590000000001
761 1 0 72.8622 89.05380000000001
762 1 0 72.8622 93.10170000000001
763 1 0 72.8622 97.1496
764 1 0 72.8622 101.1975
765 1 0 72.8622 105.2454
766 1 0 72.8622 109.2933
767 1 0 72.8622 113.34120000000001
768 1 0 72.8622 117.38910000000001
769 1 0 72.8622 121.43700000000001
770 1 0 72.8622 125.48490000000001
771 1 0 72.8622 129.5328
772 1 0 72.8622 133.5807
773 1 0 72.8622 137.6286
774 1 0 72.8622 141.6765
775 1 0 72.8622 145.7244
776 1 0 72.8622 149.7723
777 1 0 72.8622 153.8202
778 1 0 72.8622 157.8681
779 1 0 72.8622 161.916
780 1 0 76.9101 0
781 1 0 76.9101 4.0479
782 1 0 76.9101 8.0958
783 1 0 76.9101 12.1437
784 1 0 76.9101 16.1916
785 1 0 76.9101 20.2395
786 1 0 76.9101 24.2874
787 1 0 76.9101 28.335300000000004
788 1 0 76.9101 32.3832
789 1 0 76.9101 36.4311
790 1 0 76.9101 40.479
791 1 0 76.9101 44.526900000000005
792 1 0 76.9101 48.5748
793 1 0 76.9101 52.6227
794 1 0 76.9101 56.67060000000001
795 1 0 76.9101 60.718500000000006
796 1 0 76.9101 64.7664
797 1 0 76.9101 68.8143
798 1 0 76.9101 72.8622
799 1 0 76.9101 76.9101
800 1 0 76.9101 80.958
801 1 0 76.9101 85.00590000000001
802 1 0 76.9101 89.05380000000001
803 1 0 76.9101 93.10170000000001
804 1 0 76.9101 97.1496
805 1 0 76.9101 101.1975
806 1 0 76.9101 105.2454
807 1 0 76.9101 109.2933
808 1 0 76.9101 113.34120000000001
809 1 0 76.9101 117.38910000000001
810 1 0 76.9101 121.43700000000001
811 1 0 76.9101 125.48490000000001
812 1 0 76.9101 129.5328
813 1 0 76.9101 133.5807
814 1 0 76.9101 137.6286
815 1 0 76.9101 141.6765
816 1 0 76.9101 145.7244
817 1 0 76.9101 149.7723
818 1 0 76.9101 153.8202
819 1 0 76.9101 157.8681
820 1 0 76.9101 161.916
821 1 0 80.958 0
822 1 0 80.958 4.0479
823 1 0 80.958 8.0958
824 1 0 80.958 12.1437
825 1 0 80.958 16.1916
826 1 0 80.958 20.2395
827 1 0 80.958 24.2874
828 1 0 80.958 28.335300000000004
829 1 0 80.958 32.3832
830 1 0 80.958 36.4311
831 1 0 80.958 40.479
832 1 0 80.958 44.526900000000005
833 1 0 80.958 48.5748
834 1 0 80.958 52.6227
835 1 0 80.958 56.67060000000001
836 1 0 80.958 60.718500000000006
837 1 0 80.958 64.7664
838 1 0 80.958 68.8143
839 1 0 80.958 72.8622
840 1 0 80.958 76.9101
841 1 0 80.958 80.958
842 1 0 80.958 85.00590000000001
843 1 0 80.958 89.05380000000001
844 1 0 80.958 93.10170000000001
845 1 0 80.958 97.1496
846 1 0 80.958 101.1975
847 1 0 80.958 105.2454
848 1 0 80.958 109.2933
849 1 0 80.958 113.34120000000001
850 1 0 80.958 117.38910000000001
851 1 0 80.958 121.43700000000001
852 1 0 80.958 125.48490000000001
853 1 0 80.958 129.5328
854 1 0 80.958 133.5807
855 1 0 80.958 137.6286
856 1 0 80.958 141.6765
857 1 0 80.958 145.7244
858 1 0 80.958 149.7723
859 1 0 80.958 153.8202
860 1 0 80.958 157.8681
861 1 0 80.958 161.916
862 1 4.0479 0 0
863 1 4.0479 0 4.0479
864 1 4.0479 0 8.0958
865 1 4.0479 0 12.1437
866 1 4.0479 0 16.1916
867 1 4.0479 0 20.2395
868 1 4.0479 0 24.2874
869 1 4.0479 0 28.335300000000004
870 1 4.0479 0 32.3832
871 1 4.0479 0 36.4311
872 1 4.0479 0 40.479
873 1 4.0479 0 44.526900000000005
874 1 4.0479 0 48.5748
875 1 4.0479 0 52.6227
876 1 4.0479 0 56.67060000000001
877 1 4.0479 0 60.718500000000006
878 1 4.0479 0 64.7664
879 1 4.0479 0 68.8143
880 1 4.0479 0 72.8622
881 1 4.0479 0 76.9101
882 1 4.0479 0 80.958
883 1 4.0479 0 85.00590000000001
884 1 4.0479 0 89.05380000000001
885 1 4.0479 0 93.10170000000001
886 1 4.0479 0 97.1496
887 1 4.0479 0 101.1975
888 1 4.0479 0 105.2454
889 1 4.0479 0 109.2933
890 1 4.0479 0 113.34120000000001
891 1 4.0479 0 117.38910000000001
892 1 4.0479 0 121.43700000000001
893 1 4.0479 0 125.48490000000001
894 1 4.0479 0 129.5328
895 1 4.0479 0 133.5807
896 1 4.0479 0 137.6286
897 1 4.0479 0 141.6765
898 1 4.0479 0 145.7244
899 1 4.0479 0 149.7723
900 1 4.0479 0 153.8202
901 1 4.0479 0 157.8681
902 1 4.0479 0 161.916
903 1 4.0479 4.0479 0
904 1 4.0479 4.0479 4.0479
905 1 4.0479 4.0479 8.0958
906 1 4.0479 4.0479 12.1437
907 1 4.0479 4.0479 16.1916
908 1 4.0479 4.0479 20.2395
909 1 4.0479 4.0479 24.2874
910 1 4.0479 4.0479 28.335300000000004
911 1 4.0479 4.0479 32.3832
912 1 4.0479 4.0479 36.4311
913 1 4.0479 4.0479 40.479
914 1 4.0479 4.0479 44.526900000000005
915 1 4.0479 4.0479 48.5748
916 1 4.0479 4.0479 52.6227
917 1 4.0479 4.0479 56.67060000000001
918 1 4.0479 4.0479 60.718500000000006
919 1 4.0479 4.0479 64.7664
920 1 4.0479 4.0479 68.8143
921 1 4.0479 4.0479 72.8622
922 1 4.0479 4.0479 76.9101
923 1 4.0479 4.0479 80.958
924 1 4.0479 4.0479 85.00590000000001
925 1 4.0479 4.0479 89.05380000000001
926 1 4.0479 4.0479 93.10170000000001
927 1 4.0479 4.0479 97.1496
928 1 4.0479 4.0479 101.1975
929 1 4.0479 4.0479 105.2454
930 1 4.0479 4.0479 109.2933
931 1 4.0479 4.0479 113.34120000000001
932 1 4.0479 4.0479 117.38910000000001
933 1 4.0479 4.0479 121.43700000000001
934 1 4.0479 4.0479 125.48490000000001
935 1 4.0479 4.0479 129.5328
936 1 4.0479 4.0479 133.5807
937 1 4.0479 4.0479 137.6286
938 1 4.0479 4.0479 141.6765
939 1 4.0479 4.0479 145.7244
940 1 4.0479 4.0479 149.7723
941 1 4.0479 4.0479 153.8202
942 1 4.0479 4.0479 157.8681
943 1 4.0479 4.0479 161.916
944 1 4.0479 8.0958 0
945 1 4.0479 8.0958 4.0479
946 1 4.0479 8.0958 8.0958
947 1 4.0479 8.0958 12.1437
948 1 4.0479 8.0958 16.1916
949 1 4.0479 8.0958 20.2395
950 1 4.0479 8.0958 24.2874
951 1 4.0479 8.0958 28.335300000000004
952 1 4.0479 8.0958 32.3832
953 1 4.0479 8.0958 36.4311
954 1 4.0479 8.0958 40.479
955 1 4.0479 8.0958 44.526900000000005
956 1 4.0479 8.0958 48.5748
957 1 4.0479 8.0958 52.6227
958 1 4.0479 8.0958 56.67060000000001
959 1 4.0479 8.0958 60.718500000000006
960 1 4.0479 8.0958 64.7664
961 1 4.0479 8.0958 68.8143
962 1 4.0479 8.0958 72.8622
963 1 4.0479 8.0958 76.9101
964 1 4.0479 8.0958 80.958
965 1 4.0479 8.0958 85.00590000000001
966 1 4.0479 8.0958 89.05380000000001
967 1 4.0479 8.0958 93.10170000000001
968 1 4.0479 8.0958 97.1496
969 1 4.0479 8.0958 101.1975
970 1 4.0479 8.0958 105.2454
971 1 4.0479 8.0958 109.2933
972 1 4.0479 8.0958 113.34120000000001
973 1 4.0479 8.0958 117.38910000000001
974 1 4.0479 8.0958 121.43700000000001
975 1 4.0479 8.0958 125.48490000000001
976 1 4.0479 8.0958 129.5328
977 1 4.0479 8.0958 133.5807
978 1 4.0479 8.0958 137.6286
979 1 4.0479 8.0958 141.6765
980 1 4.0479 8.0958 145.7244
981 1 4.0479 8.0958 149.7723
982 1 4.0479 8.0958 153.8202
983 1 4.0479 8.0958 157.8681
984 1 4.0479 8.0958 161.916
985 1 4.0479 12.1437 0
986 1 4.0479 12.1437 4.0479
987 1 4.0479 12.1437 8.0958
988 1 4.0479 12.1437 12.1437
989 1 4.0479 12.1437 16.1916
990 1 4.0479 12.1437 20.2395
991 1 4.0479 12.1437 24.2874
992 1 4.0479 12.1437 28.335300000000004
993 1 4.0479 12.1437 32.3832
994 1 4.0479 12.1437 36.4311
995 1 4.0479 12.1437 40.479
996 1 4.0479 12.1437 44.526900000000005
997 1 4.0479 12.1437 48.5748
998 1 4.0479 12.1437 52.6227
999 1 4.0479 12.1437 56.67060000000001
1000 1 4.0479 12.1437 60.718500000000006
1001 1 4.0479 12.1437 64.7664
1002 1 4.0479 12.1437 68.8143
1003 1 4.0479 12.1437 72.8622
1004 1 4.0479 12.1437 76.9101
1005 1 4.0479 12.1437 80.958
1006 1 4.0479 12.1437 85.00590000000001
1007 1 4.0479 12.1437 89.05380000000001
1008 1 4.0479 12.1437 93.10170000000001
1009 1 4.0479 12.1437 97.1496
1010 1 4.0479 12.1437 101.1975
1011 1 4.0479 12.1437 105.2454
1012 1 4.0479 12.1437 109.2933
1013 1 4.0479 12.1437 113.34120000000001
1014 1 4.0479 12.1437 117.38910000000001
1015 1 4.0479 12.1437 121.43700000000001
1016 1 4.0479 12.1437 125.48490000000001
1017 1 4.0479 12.1437 129.5328
1018 1 4.0479 12.1437 133.5807
1019 1 4.0479 12.1437 137.6286
1020 1 4.0479 12.1437 141.6765
1021 1 4.0479 12.1437 145.7244
1022 1 4.0479 12.1437 149.7723
1023 1 4.0479 12.1437 153.8202
1024 1 4.0479 12.1437 157.8681
1025 1 4.0479 12.1437 161.916
1026 1 4.0479 16.1916 0
1027 1 4.0479 16.1916 4.0479
1028 1 4.0479 16.1916 8.0958
1029 1 4.0479 16.1916 12.1437
1030 1 4.0479 16.1916 16.1916
1031 1 4.0479 16.1916 20.2395
1032 1 4.0479 16.1916 24.2874
1033 1 4.0479 16.1916 28.335300000000004
1034 1 4.0479 16.1916 32.3832
1035 1 4.0479 16.1916 36.4311
1036 1 4.0479 16.1916 40.479
1037 1 4.0479 16.1916 44.526900000000005
1038 1 4.0479 16.1916 48.5748
1039 1 4.0479 16.1916 52.6227
1040 1 4.0479 16.1916 56.67060000000001
1041 1 4.0479 16.1916 60.718500000000006
1042 1 4.0479 16.1916 64.7664
1043 1 4.0479 16.1916 68.8143